n -t * -s 0  -x 336.70628094927099 -y 360.83086499777198 -Z 0 -z 20  -v circle -c green
n -t * -s 1  -x 29.413997455992 -y 14.590619372867 -Z 0 -z 20  -v circle -c green
n -t * -s 2  -x 64.903611406672994 -y 457.19935747270199 -Z 0 -z 20  -v circle -c green
n -t * -s 3  -x 71.903611406672994 -y 231.19935747270199 -Z 0 -z 20  -v circle -c green
n -t * -s 4  -x 54.903611406673001 -y 811.19935747270199 -Z 0 -z 20  -v circle -c green
n -t * -s 5  -x 42.903611406673001 -y 209.19935747270199 -Z 0 -z 20  -v circle -c green
n -t * -s 6  -x 72.903611406672994 -y 112.199357472702 -Z 0 -z 20  -v circle -c green
n -t * -s 7  -x 33.903611406673001 -y 120.199357472702 -Z 0 -z 20  -v circle -c green
n -t * -s 8  -x 0 -y 500 -Z 0 -z 20  -v circle -c green
n -t * -s 9  -x 0 -y 0 -Z 0 -z 20  -v circle -c green
V -t * -v 1.0a5 -a 0
W -t * -x 530 -y 530
A -t * -n 1 -p 0 -o 0x7fffffff -c 30 -a 1
A -t * -h 1 -m 1073741823 -s 0
+ -t 0.000000000 -s 0 -d -1 -p AODV -e 44 -c 2 -a 0 -i 0 -k RTR 
- -t 0.000000000 -s 0 -d -1 -p AODV -e 44 -c 2 -a 0 -i 0 -k RTR
h -t 0.000000000 -s 0 -d -1 -p AODV -e 44 -c 2 -a 0 -i 0 -k RTR
+ -t 0.000000000 -s 1 -d -1 -p AODV -e 44 -c 2 -a 0 -i 0 -k RTR 
- -t 0.000000000 -s 1 -d -1 -p AODV -e 44 -c 2 -a 0 -i 0 -k RTR
h -t 0.000000000 -s 1 -d -1 -p AODV -e 44 -c 2 -a 0 -i 0 -k RTR
+ -t 0.000000000 -s 2 -d -1 -p AODV -e 44 -c 2 -a 0 -i 0 -k RTR 
- -t 0.000000000 -s 2 -d -1 -p AODV -e 44 -c 2 -a 0 -i 0 -k RTR
h -t 0.000000000 -s 2 -d -1 -p AODV -e 44 -c 2 -a 0 -i 0 -k RTR
+ -t 0.000000000 -s 3 -d -1 -p AODV -e 44 -c 2 -a 0 -i 0 -k RTR 
- -t 0.000000000 -s 3 -d -1 -p AODV -e 44 -c 2 -a 0 -i 0 -k RTR
h -t 0.000000000 -s 3 -d -1 -p AODV -e 44 -c 2 -a 0 -i 0 -k RTR
+ -t 0.000000000 -s 4 -d -1 -p AODV -e 44 -c 2 -a 0 -i 0 -k RTR 
- -t 0.000000000 -s 4 -d -1 -p AODV -e 44 -c 2 -a 0 -i 0 -k RTR
h -t 0.000000000 -s 4 -d -1 -p AODV -e 44 -c 2 -a 0 -i 0 -k RTR
+ -t 0.000000000 -s 5 -d -1 -p AODV -e 44 -c 2 -a 0 -i 0 -k RTR 
- -t 0.000000000 -s 5 -d -1 -p AODV -e 44 -c 2 -a 0 -i 0 -k RTR
h -t 0.000000000 -s 5 -d -1 -p AODV -e 44 -c 2 -a 0 -i 0 -k RTR
+ -t 0.000000000 -s 6 -d -1 -p AODV -e 44 -c 2 -a 0 -i 0 -k RTR 
- -t 0.000000000 -s 6 -d -1 -p AODV -e 44 -c 2 -a 0 -i 0 -k RTR
h -t 0.000000000 -s 6 -d -1 -p AODV -e 44 -c 2 -a 0 -i 0 -k RTR
+ -t 0.000000000 -s 7 -d -1 -p AODV -e 44 -c 2 -a 0 -i 0 -k RTR 
- -t 0.000000000 -s 7 -d -1 -p AODV -e 44 -c 2 -a 0 -i 0 -k RTR
h -t 0.000000000 -s 7 -d -1 -p AODV -e 44 -c 2 -a 0 -i 0 -k RTR
+ -t 0.000000000 -s 8 -d -1 -p AODV -e 44 -c 2 -a 0 -i 0 -k RTR 
- -t 0.000000000 -s 8 -d -1 -p AODV -e 44 -c 2 -a 0 -i 0 -k RTR
h -t 0.000000000 -s 8 -d -1 -p AODV -e 44 -c 2 -a 0 -i 0 -k RTR
+ -t 0.000000000 -s 9 -d -1 -p AODV -e 44 -c 2 -a 0 -i 0 -k RTR 
- -t 0.000000000 -s 9 -d -1 -p AODV -e 44 -c 2 -a 0 -i 0 -k RTR
h -t 0.000000000 -s 9 -d -1 -p AODV -e 44 -c 2 -a 0 -i 0 -k RTR
+ -t 0.000115000 -s 2 -d -1 -p AODV -e 102 -c 2 -a 0 -i 0 -k MAC 
- -t 0.000115000 -s 2 -d -1 -p AODV -e 102 -c 2 -a 0 -i 0 -k MAC
h -t 0.000115000 -s 2 -d -1 -p AODV -e 102 -c 2 -a 0 -i 0 -k MAC
+ -t 0.000315000 -s 1 -d -1 -p AODV -e 102 -c 2 -a 0 -i 0 -k MAC 
- -t 0.000315000 -s 1 -d -1 -p AODV -e 102 -c 2 -a 0 -i 0 -k MAC
h -t 0.000315000 -s 1 -d -1 -p AODV -e 102 -c 2 -a 0 -i 0 -k MAC
d -t 0.000315352 -s 7 -d -1 -p AODV -e 102 -c 2 -a 0 -i 0 -k MAC
d -t 0.000315356 -s 6 -d -1 -p AODV -e 102 -c 2 -a 0 -i 0 -k MAC
d -t 0.000315650 -s 5 -d -1 -p AODV -e 102 -c 2 -a 0 -i 0 -k MAC
d -t 0.000315736 -s 3 -d -1 -p AODV -e 102 -c 2 -a 0 -i 0 -k MAC
r -t 0.000931259 -s 8 -d -1 -p AODV -e 44 -c 2 -a 0 -i 0 -k MAC
r -t 0.000931961 -s 0 -d -1 -p AODV -e 44 -c 2 -a 0 -i 0 -k MAC
r -t 0.000932180 -s 4 -d -1 -p AODV -e 44 -c 2 -a 0 -i 0 -k MAC
r -t 0.000956259 -s 8 -d -1 -p AODV -e 44 -c 2 -a 0 -i 0 -k RTR
r -t 0.000956961 -s 0 -d -1 -p AODV -e 44 -c 2 -a 0 -i 0 -k RTR
r -t 0.000957180 -s 4 -d -1 -p AODV -e 44 -c 2 -a 0 -i 0 -k RTR
+ -t 0.001102180 -s 4 -d -1 -p AODV -e 102 -c 2 -a 0 -i 0 -k MAC 
- -t 0.001102180 -s 4 -d -1 -p AODV -e 102 -c 2 -a 0 -i 0 -k MAC
h -t 0.001102180 -s 4 -d -1 -p AODV -e 102 -c 2 -a 0 -i 0 -k MAC
r -t 0.001131109 -s 9 -d -1 -p AODV -e 44 -c 2 -a 0 -i 0 -k MAC
d -t 0.001131352 -s 7 -d -1 -p AODV -e 102 -c 2 -a 0 -i 0 -k MAC
d -t 0.001131356 -s 6 -d -1 -p AODV -e 102 -c 2 -a 0 -i 0 -k MAC
d -t 0.001131650 -s 5 -d -1 -p AODV -e 102 -c 2 -a 0 -i 0 -k MAC
d -t 0.001131736 -s 3 -d -1 -p AODV -e 102 -c 2 -a 0 -i 0 -k MAC
r -t 0.001156109 -s 9 -d -1 -p AODV -e 44 -c 2 -a 0 -i 0 -k RTR
+ -t 0.001201961 -s 0 -d -1 -p AODV -e 102 -c 2 -a 0 -i 0 -k MAC 
- -t 0.001201961 -s 0 -d -1 -p AODV -e 102 -c 2 -a 0 -i 0 -k MAC
h -t 0.001201961 -s 0 -d -1 -p AODV -e 102 -c 2 -a 0 -i 0 -k MAC
d -t 0.001202923 -s 2 -d -1 -p AODV -e 102 -c 2 -a 0 -i 0 -k MAC
d -t 0.001203176 -s 8 -d -1 -p AODV -e 102 -c 2 -a 0 -i 0 -k MAC
+ -t 0.001281109 -s 9 -d -1 -p AODV -e 102 -c 2 -a 0 -i 0 -k MAC 
- -t 0.001281109 -s 9 -d -1 -p AODV -e 102 -c 2 -a 0 -i 0 -k MAC
h -t 0.001281109 -s 9 -d -1 -p AODV -e 102 -c 2 -a 0 -i 0 -k MAC
d -t 0.001281526 -s 7 -d -1 -p AODV -e 102 -c 2 -a 0 -i 0 -k MAC
d -t 0.001281555 -s 6 -d -1 -p AODV -e 102 -c 2 -a 0 -i 0 -k MAC
d -t 0.001281821 -s 5 -d -1 -p AODV -e 102 -c 2 -a 0 -i 0 -k MAC
d -t 0.001281917 -s 3 -d -1 -p AODV -e 102 -c 2 -a 0 -i 0 -k MAC
d -t 0.002018923 -s 2 -d -1 -p AODV -e 102 -c 2 -a 0 -i 0 -k MAC
d -t 0.002019176 -s 8 -d -1 -p AODV -e 102 -c 2 -a 0 -i 0 -k MAC
r -t 0.002097219 -s 1 -d -1 -p AODV -e 44 -c 2 -a 0 -i 0 -k MAC
d -t 0.002097526 -s 7 -d -1 -p AODV -e 102 -c 2 -a 0 -i 0 -k MAC
d -t 0.002097555 -s 6 -d -1 -p AODV -e 102 -c 2 -a 0 -i 0 -k MAC
d -t 0.002097821 -s 5 -d -1 -p AODV -e 102 -c 2 -a 0 -i 0 -k MAC
d -t 0.002097917 -s 3 -d -1 -p AODV -e 102 -c 2 -a 0 -i 0 -k MAC
r -t 0.002122219 -s 1 -d -1 -p AODV -e 44 -c 2 -a 0 -i 0 -k RTR
+ -t 0.002631526 -s 7 -d -1 -p AODV -e 102 -c 2 -a 0 -i 0 -k MAC 
- -t 0.002631526 -s 7 -d -1 -p AODV -e 102 -c 2 -a 0 -i 0 -k MAC
h -t 0.002631526 -s 7 -d -1 -p AODV -e 102 -c 2 -a 0 -i 0 -k MAC
r -t 0.003447658 -s 6 -d -1 -p AODV -e 44 -c 2 -a 0 -i 0 -k MAC
r -t 0.003447824 -s 5 -d -1 -p AODV -e 44 -c 2 -a 0 -i 0 -k MAC
r -t 0.003447878 -s 1 -d -1 -p AODV -e 44 -c 2 -a 0 -i 0 -k MAC
r -t 0.003447917 -s 3 -d -1 -p AODV -e 44 -c 2 -a 0 -i 0 -k MAC
r -t 0.003447942 -s 9 -d -1 -p AODV -e 44 -c 2 -a 0 -i 0 -k MAC
r -t 0.003448654 -s 2 -d -1 -p AODV -e 44 -c 2 -a 0 -i 0 -k MAC
r -t 0.003448797 -s 8 -d -1 -p AODV -e 44 -c 2 -a 0 -i 0 -k MAC
r -t 0.003448815 -s 0 -d -1 -p AODV -e 44 -c 2 -a 0 -i 0 -k MAC
r -t 0.003472658 -s 6 -d -1 -p AODV -e 44 -c 2 -a 0 -i 0 -k RTR
r -t 0.003472824 -s 5 -d -1 -p AODV -e 44 -c 2 -a 0 -i 0 -k RTR
r -t 0.003472878 -s 1 -d -1 -p AODV -e 44 -c 2 -a 0 -i 0 -k RTR
r -t 0.003472917 -s 3 -d -1 -p AODV -e 44 -c 2 -a 0 -i 0 -k RTR
r -t 0.003472942 -s 9 -d -1 -p AODV -e 44 -c 2 -a 0 -i 0 -k RTR
r -t 0.003473654 -s 2 -d -1 -p AODV -e 44 -c 2 -a 0 -i 0 -k RTR
r -t 0.003473797 -s 8 -d -1 -p AODV -e 44 -c 2 -a 0 -i 0 -k RTR
r -t 0.003473815 -s 0 -d -1 -p AODV -e 44 -c 2 -a 0 -i 0 -k RTR
+ -t 0.003577658 -s 6 -d -1 -p AODV -e 102 -c 2 -a 0 -i 0 -k MAC 
- -t 0.003577658 -s 6 -d -1 -p AODV -e 102 -c 2 -a 0 -i 0 -k MAC
h -t 0.003577658 -s 6 -d -1 -p AODV -e 102 -c 2 -a 0 -i 0 -k MAC
r -t 0.004393791 -s 7 -d -1 -p AODV -e 44 -c 2 -a 0 -i 0 -k MAC
r -t 0.004393997 -s 5 -d -1 -p AODV -e 44 -c 2 -a 0 -i 0 -k MAC
r -t 0.004394015 -s 1 -d -1 -p AODV -e 44 -c 2 -a 0 -i 0 -k MAC
r -t 0.004394055 -s 3 -d -1 -p AODV -e 44 -c 2 -a 0 -i 0 -k MAC
r -t 0.004394104 -s 9 -d -1 -p AODV -e 44 -c 2 -a 0 -i 0 -k MAC
r -t 0.004394809 -s 2 -d -1 -p AODV -e 44 -c 2 -a 0 -i 0 -k MAC
r -t 0.004394867 -s 0 -d -1 -p AODV -e 44 -c 2 -a 0 -i 0 -k MAC
r -t 0.004394974 -s 8 -d -1 -p AODV -e 44 -c 2 -a 0 -i 0 -k MAC
r -t 0.004418791 -s 7 -d -1 -p AODV -e 44 -c 2 -a 0 -i 0 -k RTR
r -t 0.004418997 -s 5 -d -1 -p AODV -e 44 -c 2 -a 0 -i 0 -k RTR
r -t 0.004419015 -s 1 -d -1 -p AODV -e 44 -c 2 -a 0 -i 0 -k RTR
r -t 0.004419055 -s 3 -d -1 -p AODV -e 44 -c 2 -a 0 -i 0 -k RTR
r -t 0.004419104 -s 9 -d -1 -p AODV -e 44 -c 2 -a 0 -i 0 -k RTR
r -t 0.004419809 -s 2 -d -1 -p AODV -e 44 -c 2 -a 0 -i 0 -k RTR
r -t 0.004419867 -s 0 -d -1 -p AODV -e 44 -c 2 -a 0 -i 0 -k RTR
r -t 0.004419974 -s 8 -d -1 -p AODV -e 44 -c 2 -a 0 -i 0 -k RTR
+ -t 0.004504974 -s 8 -d -1 -p AODV -e 102 -c 2 -a 0 -i 0 -k MAC 
- -t 0.004504974 -s 8 -d -1 -p AODV -e 102 -c 2 -a 0 -i 0 -k MAC
h -t 0.004504974 -s 8 -d -1 -p AODV -e 102 -c 2 -a 0 -i 0 -k MAC
r -t 0.005321233 -s 2 -d -1 -p AODV -e 44 -c 2 -a 0 -i 0 -k MAC
r -t 0.005321901 -s 3 -d -1 -p AODV -e 44 -c 2 -a 0 -i 0 -k MAC
r -t 0.005321954 -s 5 -d -1 -p AODV -e 44 -c 2 -a 0 -i 0 -k MAC
r -t 0.005322027 -s 4 -d -1 -p AODV -e 44 -c 2 -a 0 -i 0 -k MAC
r -t 0.005322188 -s 0 -d -1 -p AODV -e 44 -c 2 -a 0 -i 0 -k MAC
r -t 0.005322245 -s 7 -d -1 -p AODV -e 44 -c 2 -a 0 -i 0 -k MAC
r -t 0.005322289 -s 6 -d -1 -p AODV -e 44 -c 2 -a 0 -i 0 -k MAC
r -t 0.005346233 -s 2 -d -1 -p AODV -e 44 -c 2 -a 0 -i 0 -k RTR
r -t 0.005346901 -s 3 -d -1 -p AODV -e 44 -c 2 -a 0 -i 0 -k RTR
r -t 0.005346954 -s 5 -d -1 -p AODV -e 44 -c 2 -a 0 -i 0 -k RTR
r -t 0.005347027 -s 4 -d -1 -p AODV -e 44 -c 2 -a 0 -i 0 -k RTR
r -t 0.005347188 -s 0 -d -1 -p AODV -e 44 -c 2 -a 0 -i 0 -k RTR
r -t 0.005347245 -s 7 -d -1 -p AODV -e 44 -c 2 -a 0 -i 0 -k RTR
r -t 0.005347289 -s 6 -d -1 -p AODV -e 44 -c 2 -a 0 -i 0 -k RTR
+ -t 0.005431954 -s 5 -d -1 -p AODV -e 102 -c 2 -a 0 -i 0 -k MAC 
- -t 0.005431954 -s 5 -d -1 -p AODV -e 102 -c 2 -a 0 -i 0 -k MAC
h -t 0.005431954 -s 5 -d -1 -p AODV -e 102 -c 2 -a 0 -i 0 -k MAC
r -t 0.006248075 -s 3 -d -1 -p AODV -e 44 -c 2 -a 0 -i 0 -k MAC
r -t 0.006248252 -s 7 -d -1 -p AODV -e 44 -c 2 -a 0 -i 0 -k MAC
r -t 0.006248292 -s 6 -d -1 -p AODV -e 44 -c 2 -a 0 -i 0 -k MAC
r -t 0.006248604 -s 1 -d -1 -p AODV -e 44 -c 2 -a 0 -i 0 -k MAC
r -t 0.006248665 -s 9 -d -1 -p AODV -e 44 -c 2 -a 0 -i 0 -k MAC
r -t 0.006248784 -s 2 -d -1 -p AODV -e 44 -c 2 -a 0 -i 0 -k MAC
r -t 0.006248933 -s 8 -d -1 -p AODV -e 44 -c 2 -a 0 -i 0 -k MAC
r -t 0.006249056 -s 0 -d -1 -p AODV -e 44 -c 2 -a 0 -i 0 -k MAC
r -t 0.006273075 -s 3 -d -1 -p AODV -e 44 -c 2 -a 0 -i 0 -k RTR
r -t 0.006273252 -s 7 -d -1 -p AODV -e 44 -c 2 -a 0 -i 0 -k RTR
r -t 0.006273292 -s 6 -d -1 -p AODV -e 44 -c 2 -a 0 -i 0 -k RTR
r -t 0.006273604 -s 1 -d -1 -p AODV -e 44 -c 2 -a 0 -i 0 -k RTR
r -t 0.006273665 -s 9 -d -1 -p AODV -e 44 -c 2 -a 0 -i 0 -k RTR
r -t 0.006273784 -s 2 -d -1 -p AODV -e 44 -c 2 -a 0 -i 0 -k RTR
r -t 0.006273933 -s 8 -d -1 -p AODV -e 44 -c 2 -a 0 -i 0 -k RTR
r -t 0.006274056 -s 0 -d -1 -p AODV -e 44 -c 2 -a 0 -i 0 -k RTR
+ -t 0.006478075 -s 3 -d -1 -p AODV -e 102 -c 2 -a 0 -i 0 -k MAC 
- -t 0.006478075 -s 3 -d -1 -p AODV -e 102 -c 2 -a 0 -i 0 -k MAC
h -t 0.006478075 -s 3 -d -1 -p AODV -e 102 -c 2 -a 0 -i 0 -k MAC
r -t 0.007294196 -s 5 -d -1 -p AODV -e 44 -c 2 -a 0 -i 0 -k MAC
r -t 0.007294466 -s 7 -d -1 -p AODV -e 44 -c 2 -a 0 -i 0 -k MAC
r -t 0.007294472 -s 6 -d -1 -p AODV -e 44 -c 2 -a 0 -i 0 -k MAC
r -t 0.007294811 -s 1 -d -1 -p AODV -e 44 -c 2 -a 0 -i 0 -k MAC
r -t 0.007294829 -s 2 -d -1 -p AODV -e 44 -c 2 -a 0 -i 0 -k MAC
r -t 0.007294882 -s 9 -d -1 -p AODV -e 44 -c 2 -a 0 -i 0 -k MAC
r -t 0.007295002 -s 8 -d -1 -p AODV -e 44 -c 2 -a 0 -i 0 -k MAC
r -t 0.007295058 -s 0 -d -1 -p AODV -e 44 -c 2 -a 0 -i 0 -k MAC
r -t 0.007319196 -s 5 -d -1 -p AODV -e 44 -c 2 -a 0 -i 0 -k RTR
r -t 0.007319466 -s 7 -d -1 -p AODV -e 44 -c 2 -a 0 -i 0 -k RTR
r -t 0.007319472 -s 6 -d -1 -p AODV -e 44 -c 2 -a 0 -i 0 -k RTR
r -t 0.007319811 -s 1 -d -1 -p AODV -e 44 -c 2 -a 0 -i 0 -k RTR
r -t 0.007319829 -s 2 -d -1 -p AODV -e 44 -c 2 -a 0 -i 0 -k RTR
r -t 0.007319882 -s 9 -d -1 -p AODV -e 44 -c 2 -a 0 -i 0 -k RTR
r -t 0.007320002 -s 8 -d -1 -p AODV -e 44 -c 2 -a 0 -i 0 -k RTR
r -t 0.007320058 -s 0 -d -1 -p AODV -e 44 -c 2 -a 0 -i 0 -k RTR
+ -t 0.750169789 -s 0 -d -1 -p AODV -e 44 -c 2 -a 0 -i 0 -k RTR 
- -t 0.750169789 -s 0 -d -1 -p AODV -e 44 -c 2 -a 0 -i 0 -k RTR
h -t 0.750169789 -s 0 -d -1 -p AODV -e 44 -c 2 -a 0 -i 0 -k RTR
+ -t 0.750284789 -s 0 -d -1 -p AODV -e 102 -c 2 -a 0 -i 0 -k MAC 
- -t 0.750284789 -s 0 -d -1 -p AODV -e 102 -c 2 -a 0 -i 0 -k MAC
h -t 0.750284789 -s 0 -d -1 -p AODV -e 102 -c 2 -a 0 -i 0 -k MAC
r -t 0.751101750 -s 2 -d -1 -p AODV -e 44 -c 2 -a 0 -i 0 -k MAC
r -t 0.751101771 -s 3 -d -1 -p AODV -e 44 -c 2 -a 0 -i 0 -k MAC
r -t 0.751101891 -s 5 -d -1 -p AODV -e 44 -c 2 -a 0 -i 0 -k MAC
r -t 0.751101997 -s 6 -d -1 -p AODV -e 44 -c 2 -a 0 -i 0 -k MAC
r -t 0.751102003 -s 8 -d -1 -p AODV -e 44 -c 2 -a 0 -i 0 -k MAC
r -t 0.751102078 -s 7 -d -1 -p AODV -e 44 -c 2 -a 0 -i 0 -k MAC
r -t 0.751126750 -s 2 -d -1 -p AODV -e 44 -c 2 -a 0 -i 0 -k RTR
r -t 0.751126771 -s 3 -d -1 -p AODV -e 44 -c 2 -a 0 -i 0 -k RTR
r -t 0.751126891 -s 5 -d -1 -p AODV -e 44 -c 2 -a 0 -i 0 -k RTR
r -t 0.751126997 -s 6 -d -1 -p AODV -e 44 -c 2 -a 0 -i 0 -k RTR
r -t 0.751127003 -s 8 -d -1 -p AODV -e 44 -c 2 -a 0 -i 0 -k RTR
r -t 0.751127078 -s 7 -d -1 -p AODV -e 44 -c 2 -a 0 -i 0 -k RTR
+ -t 0.757102330 -s 2 -d -1 -p AODV -e 44 -c 2 -a 0 -i 0 -k RTR 
- -t 0.757102330 -s 2 -d -1 -p AODV -e 44 -c 2 -a 0 -i 0 -k RTR
h -t 0.757102330 -s 2 -d -1 -p AODV -e 44 -c 2 -a 0 -i 0 -k RTR
+ -t 0.757317330 -s 2 -d -1 -p AODV -e 102 -c 2 -a 0 -i 0 -k MAC 
- -t 0.757317330 -s 2 -d -1 -p AODV -e 102 -c 2 -a 0 -i 0 -k MAC
h -t 0.757317330 -s 2 -d -1 -p AODV -e 102 -c 2 -a 0 -i 0 -k MAC
r -t 0.758133589 -s 8 -d -1 -p AODV -e 44 -c 2 -a 0 -i 0 -k MAC
r -t 0.758134084 -s 3 -d -1 -p AODV -e 44 -c 2 -a 0 -i 0 -k MAC
r -t 0.758134160 -s 5 -d -1 -p AODV -e 44 -c 2 -a 0 -i 0 -k MAC
r -t 0.758134292 -s 0 -d -1 -p AODV -e 44 -c 2 -a 0 -i 0 -k MAC
r -t 0.758134458 -s 7 -d -1 -p AODV -e 44 -c 2 -a 0 -i 0 -k MAC
r -t 0.758134481 -s 6 -d -1 -p AODV -e 44 -c 2 -a 0 -i 0 -k MAC
r -t 0.758134511 -s 4 -d -1 -p AODV -e 44 -c 2 -a 0 -i 0 -k MAC
r -t 0.758158589 -s 8 -d -1 -p AODV -e 44 -c 2 -a 0 -i 0 -k RTR
r -t 0.758159084 -s 3 -d -1 -p AODV -e 44 -c 2 -a 0 -i 0 -k RTR
r -t 0.758159160 -s 5 -d -1 -p AODV -e 44 -c 2 -a 0 -i 0 -k RTR
r -t 0.758159292 -s 0 -d -1 -p AODV -e 44 -c 2 -a 0 -i 0 -k RTR
r -t 0.758159458 -s 7 -d -1 -p AODV -e 44 -c 2 -a 0 -i 0 -k RTR
r -t 0.758159481 -s 6 -d -1 -p AODV -e 44 -c 2 -a 0 -i 0 -k RTR
r -t 0.758159511 -s 4 -d -1 -p AODV -e 44 -c 2 -a 0 -i 0 -k RTR
+ -t 0.794061336 -s 3 -d -1 -p AODV -e 44 -c 2 -a 0 -i 0 -k RTR 
- -t 0.794061336 -s 3 -d -1 -p AODV -e 44 -c 2 -a 0 -i 0 -k RTR
h -t 0.794061336 -s 3 -d -1 -p AODV -e 44 -c 2 -a 0 -i 0 -k RTR
+ -t 0.794336336 -s 3 -d -1 -p AODV -e 102 -c 2 -a 0 -i 0 -k MAC 
- -t 0.794336336 -s 3 -d -1 -p AODV -e 102 -c 2 -a 0 -i 0 -k MAC
h -t 0.794336336 -s 3 -d -1 -p AODV -e 102 -c 2 -a 0 -i 0 -k MAC
r -t 0.795152457 -s 5 -d -1 -p AODV -e 44 -c 2 -a 0 -i 0 -k MAC
r -t 0.795152727 -s 7 -d -1 -p AODV -e 44 -c 2 -a 0 -i 0 -k MAC
r -t 0.795152732 -s 6 -d -1 -p AODV -e 44 -c 2 -a 0 -i 0 -k MAC
r -t 0.795153071 -s 1 -d -1 -p AODV -e 44 -c 2 -a 0 -i 0 -k MAC
r -t 0.795153089 -s 2 -d -1 -p AODV -e 44 -c 2 -a 0 -i 0 -k MAC
r -t 0.795153143 -s 9 -d -1 -p AODV -e 44 -c 2 -a 0 -i 0 -k MAC
r -t 0.795153263 -s 8 -d -1 -p AODV -e 44 -c 2 -a 0 -i 0 -k MAC
r -t 0.795153318 -s 0 -d -1 -p AODV -e 44 -c 2 -a 0 -i 0 -k MAC
r -t 0.795177457 -s 5 -d -1 -p AODV -e 44 -c 2 -a 0 -i 0 -k RTR
r -t 0.795177727 -s 7 -d -1 -p AODV -e 44 -c 2 -a 0 -i 0 -k RTR
r -t 0.795177732 -s 6 -d -1 -p AODV -e 44 -c 2 -a 0 -i 0 -k RTR
r -t 0.795178071 -s 1 -d -1 -p AODV -e 44 -c 2 -a 0 -i 0 -k RTR
r -t 0.795178089 -s 2 -d -1 -p AODV -e 44 -c 2 -a 0 -i 0 -k RTR
r -t 0.795178143 -s 9 -d -1 -p AODV -e 44 -c 2 -a 0 -i 0 -k RTR
r -t 0.795178263 -s 8 -d -1 -p AODV -e 44 -c 2 -a 0 -i 0 -k RTR
r -t 0.795178318 -s 0 -d -1 -p AODV -e 44 -c 2 -a 0 -i 0 -k RTR
+ -t 0.867300876 -s 8 -d -1 -p AODV -e 44 -c 2 -a 0 -i 0 -k RTR 
- -t 0.867300876 -s 8 -d -1 -p AODV -e 44 -c 2 -a 0 -i 0 -k RTR
h -t 0.867300876 -s 8 -d -1 -p AODV -e 44 -c 2 -a 0 -i 0 -k RTR
+ -t 0.867595876 -s 8 -d -1 -p AODV -e 102 -c 2 -a 0 -i 0 -k MAC 
- -t 0.867595876 -s 8 -d -1 -p AODV -e 102 -c 2 -a 0 -i 0 -k MAC
h -t 0.867595876 -s 8 -d -1 -p AODV -e 102 -c 2 -a 0 -i 0 -k MAC
r -t 0.868412135 -s 2 -d -1 -p AODV -e 44 -c 2 -a 0 -i 0 -k MAC
r -t 0.868412803 -s 3 -d -1 -p AODV -e 44 -c 2 -a 0 -i 0 -k MAC
r -t 0.868412856 -s 5 -d -1 -p AODV -e 44 -c 2 -a 0 -i 0 -k MAC
r -t 0.868412929 -s 4 -d -1 -p AODV -e 44 -c 2 -a 0 -i 0 -k MAC
r -t 0.868413090 -s 0 -d -1 -p AODV -e 44 -c 2 -a 0 -i 0 -k MAC
r -t 0.868413147 -s 7 -d -1 -p AODV -e 44 -c 2 -a 0 -i 0 -k MAC
r -t 0.868413191 -s 6 -d -1 -p AODV -e 44 -c 2 -a 0 -i 0 -k MAC
r -t 0.868437135 -s 2 -d -1 -p AODV -e 44 -c 2 -a 0 -i 0 -k RTR
r -t 0.868437803 -s 3 -d -1 -p AODV -e 44 -c 2 -a 0 -i 0 -k RTR
r -t 0.868437856 -s 5 -d -1 -p AODV -e 44 -c 2 -a 0 -i 0 -k RTR
r -t 0.868437929 -s 4 -d -1 -p AODV -e 44 -c 2 -a 0 -i 0 -k RTR
r -t 0.868438090 -s 0 -d -1 -p AODV -e 44 -c 2 -a 0 -i 0 -k RTR
r -t 0.868438147 -s 7 -d -1 -p AODV -e 44 -c 2 -a 0 -i 0 -k RTR
r -t 0.868438191 -s 6 -d -1 -p AODV -e 44 -c 2 -a 0 -i 0 -k RTR
+ -t 0.906480886 -s 6 -d -1 -p AODV -e 44 -c 2 -a 0 -i 0 -k RTR 
- -t 0.906480886 -s 6 -d -1 -p AODV -e 44 -c 2 -a 0 -i 0 -k RTR
h -t 0.906480886 -s 6 -d -1 -p AODV -e 44 -c 2 -a 0 -i 0 -k RTR
+ -t 0.906615886 -s 6 -d -1 -p AODV -e 102 -c 2 -a 0 -i 0 -k MAC 
- -t 0.906615886 -s 6 -d -1 -p AODV -e 102 -c 2 -a 0 -i 0 -k MAC
h -t 0.906615886 -s 6 -d -1 -p AODV -e 102 -c 2 -a 0 -i 0 -k MAC
r -t 0.907432019 -s 7 -d -1 -p AODV -e 44 -c 2 -a 0 -i 0 -k MAC
r -t 0.907432224 -s 5 -d -1 -p AODV -e 44 -c 2 -a 0 -i 0 -k MAC
r -t 0.907432242 -s 1 -d -1 -p AODV -e 44 -c 2 -a 0 -i 0 -k MAC
r -t 0.907432283 -s 3 -d -1 -p AODV -e 44 -c 2 -a 0 -i 0 -k MAC
r -t 0.907432332 -s 9 -d -1 -p AODV -e 44 -c 2 -a 0 -i 0 -k MAC
r -t 0.907433036 -s 2 -d -1 -p AODV -e 44 -c 2 -a 0 -i 0 -k MAC
r -t 0.907433094 -s 0 -d -1 -p AODV -e 44 -c 2 -a 0 -i 0 -k MAC
r -t 0.907433201 -s 8 -d -1 -p AODV -e 44 -c 2 -a 0 -i 0 -k MAC
r -t 0.907457019 -s 7 -d -1 -p AODV -e 44 -c 2 -a 0 -i 0 -k RTR
r -t 0.907457224 -s 5 -d -1 -p AODV -e 44 -c 2 -a 0 -i 0 -k RTR
r -t 0.907457242 -s 1 -d -1 -p AODV -e 44 -c 2 -a 0 -i 0 -k RTR
r -t 0.907457283 -s 3 -d -1 -p AODV -e 44 -c 2 -a 0 -i 0 -k RTR
r -t 0.907457332 -s 9 -d -1 -p AODV -e 44 -c 2 -a 0 -i 0 -k RTR
r -t 0.907458036 -s 2 -d -1 -p AODV -e 44 -c 2 -a 0 -i 0 -k RTR
r -t 0.907458094 -s 0 -d -1 -p AODV -e 44 -c 2 -a 0 -i 0 -k RTR
r -t 0.907458201 -s 8 -d -1 -p AODV -e 44 -c 2 -a 0 -i 0 -k RTR
+ -t 0.970586691 -s 4 -d -1 -p AODV -e 44 -c 2 -a 0 -i 0 -k RTR 
- -t 0.970586691 -s 4 -d -1 -p AODV -e 44 -c 2 -a 0 -i 0 -k RTR
h -t 0.970586691 -s 4 -d -1 -p AODV -e 44 -c 2 -a 0 -i 0 -k RTR
+ -t 0.971161691 -s 4 -d -1 -p AODV -e 102 -c 2 -a 0 -i 0 -k MAC 
- -t 0.971161691 -s 4 -d -1 -p AODV -e 102 -c 2 -a 0 -i 0 -k MAC
h -t 0.971161691 -s 4 -d -1 -p AODV -e 102 -c 2 -a 0 -i 0 -k MAC
r -t 0.971978744 -s 8 -d -1 -p AODV -e 44 -c 2 -a 0 -i 0 -k MAC
r -t 0.971978871 -s 2 -d -1 -p AODV -e 44 -c 2 -a 0 -i 0 -k MAC
r -t 0.972003744 -s 8 -d -1 -p AODV -e 44 -c 2 -a 0 -i 0 -k RTR
r -t 0.972003871 -s 2 -d -1 -p AODV -e 44 -c 2 -a 0 -i 0 -k RTR
+ -t 1.027940358 -s 1 -d -1 -p AODV -e 44 -c 2 -a 0 -i 0 -k RTR 
- -t 1.027940358 -s 1 -d -1 -p AODV -e 44 -c 2 -a 0 -i 0 -k RTR
h -t 1.027940358 -s 1 -d -1 -p AODV -e 44 -c 2 -a 0 -i 0 -k RTR
+ -t 1.028295358 -s 1 -d -1 -p AODV -e 102 -c 2 -a 0 -i 0 -k MAC 
- -t 1.028295358 -s 1 -d -1 -p AODV -e 102 -c 2 -a 0 -i 0 -k MAC
h -t 1.028295358 -s 1 -d -1 -p AODV -e 102 -c 2 -a 0 -i 0 -k MAC
r -t 1.029111467 -s 9 -d -1 -p AODV -e 44 -c 2 -a 0 -i 0 -k MAC
r -t 1.029111710 -s 7 -d -1 -p AODV -e 44 -c 2 -a 0 -i 0 -k MAC
r -t 1.029111714 -s 6 -d -1 -p AODV -e 44 -c 2 -a 0 -i 0 -k MAC
r -t 1.029112008 -s 5 -d -1 -p AODV -e 44 -c 2 -a 0 -i 0 -k MAC
r -t 1.029112094 -s 3 -d -1 -p AODV -e 44 -c 2 -a 0 -i 0 -k MAC
r -t 1.029136467 -s 9 -d -1 -p AODV -e 44 -c 2 -a 0 -i 0 -k RTR
r -t 1.029136710 -s 7 -d -1 -p AODV -e 44 -c 2 -a 0 -i 0 -k RTR
r -t 1.029136714 -s 6 -d -1 -p AODV -e 44 -c 2 -a 0 -i 0 -k RTR
r -t 1.029137008 -s 5 -d -1 -p AODV -e 44 -c 2 -a 0 -i 0 -k RTR
r -t 1.029137094 -s 3 -d -1 -p AODV -e 44 -c 2 -a 0 -i 0 -k RTR
+ -t 1.069432572 -s 9 -d -1 -p AODV -e 44 -c 2 -a 0 -i 0 -k RTR 
- -t 1.069432572 -s 9 -d -1 -p AODV -e 44 -c 2 -a 0 -i 0 -k RTR
h -t 1.069432572 -s 9 -d -1 -p AODV -e 44 -c 2 -a 0 -i 0 -k RTR
+ -t 1.069727572 -s 9 -d -1 -p AODV -e 102 -c 2 -a 0 -i 0 -k MAC 
- -t 1.069727572 -s 9 -d -1 -p AODV -e 102 -c 2 -a 0 -i 0 -k MAC
h -t 1.069727572 -s 9 -d -1 -p AODV -e 102 -c 2 -a 0 -i 0 -k MAC
r -t 1.070543681 -s 1 -d -1 -p AODV -e 44 -c 2 -a 0 -i 0 -k MAC
r -t 1.070543988 -s 7 -d -1 -p AODV -e 44 -c 2 -a 0 -i 0 -k MAC
r -t 1.070544018 -s 6 -d -1 -p AODV -e 44 -c 2 -a 0 -i 0 -k MAC
r -t 1.070544283 -s 5 -d -1 -p AODV -e 44 -c 2 -a 0 -i 0 -k MAC
r -t 1.070544379 -s 3 -d -1 -p AODV -e 44 -c 2 -a 0 -i 0 -k MAC
r -t 1.070568681 -s 1 -d -1 -p AODV -e 44 -c 2 -a 0 -i 0 -k RTR
r -t 1.070568988 -s 7 -d -1 -p AODV -e 44 -c 2 -a 0 -i 0 -k RTR
r -t 1.070569018 -s 6 -d -1 -p AODV -e 44 -c 2 -a 0 -i 0 -k RTR
r -t 1.070569283 -s 5 -d -1 -p AODV -e 44 -c 2 -a 0 -i 0 -k RTR
r -t 1.070569379 -s 3 -d -1 -p AODV -e 44 -c 2 -a 0 -i 0 -k RTR
+ -t 1.149577727 -s 5 -d -1 -p AODV -e 44 -c 2 -a 0 -i 0 -k RTR 
- -t 1.149577727 -s 5 -d -1 -p AODV -e 44 -c 2 -a 0 -i 0 -k RTR
h -t 1.149577727 -s 5 -d -1 -p AODV -e 44 -c 2 -a 0 -i 0 -k RTR
+ -t 1.149872727 -s 5 -d -1 -p AODV -e 102 -c 2 -a 0 -i 0 -k MAC 
- -t 1.149872727 -s 5 -d -1 -p AODV -e 102 -c 2 -a 0 -i 0 -k MAC
h -t 1.149872727 -s 5 -d -1 -p AODV -e 102 -c 2 -a 0 -i 0 -k MAC
r -t 1.150688848 -s 3 -d -1 -p AODV -e 44 -c 2 -a 0 -i 0 -k MAC
r -t 1.150689025 -s 7 -d -1 -p AODV -e 44 -c 2 -a 0 -i 0 -k MAC
r -t 1.150689065 -s 6 -d -1 -p AODV -e 44 -c 2 -a 0 -i 0 -k MAC
r -t 1.150689377 -s 1 -d -1 -p AODV -e 44 -c 2 -a 0 -i 0 -k MAC
r -t 1.150689439 -s 9 -d -1 -p AODV -e 44 -c 2 -a 0 -i 0 -k MAC
r -t 1.150689557 -s 2 -d -1 -p AODV -e 44 -c 2 -a 0 -i 0 -k MAC
r -t 1.150689707 -s 8 -d -1 -p AODV -e 44 -c 2 -a 0 -i 0 -k MAC
r -t 1.150689829 -s 0 -d -1 -p AODV -e 44 -c 2 -a 0 -i 0 -k MAC
r -t 1.150713848 -s 3 -d -1 -p AODV -e 44 -c 2 -a 0 -i 0 -k RTR
r -t 1.150714025 -s 7 -d -1 -p AODV -e 44 -c 2 -a 0 -i 0 -k RTR
r -t 1.150714065 -s 6 -d -1 -p AODV -e 44 -c 2 -a 0 -i 0 -k RTR
r -t 1.150714377 -s 1 -d -1 -p AODV -e 44 -c 2 -a 0 -i 0 -k RTR
r -t 1.150714439 -s 9 -d -1 -p AODV -e 44 -c 2 -a 0 -i 0 -k RTR
r -t 1.150714557 -s 2 -d -1 -p AODV -e 44 -c 2 -a 0 -i 0 -k RTR
r -t 1.150714707 -s 8 -d -1 -p AODV -e 44 -c 2 -a 0 -i 0 -k RTR
r -t 1.150714829 -s 0 -d -1 -p AODV -e 44 -c 2 -a 0 -i 0 -k RTR
+ -t 1.158238026 -s 7 -d -1 -p AODV -e 44 -c 2 -a 0 -i 0 -k RTR 
- -t 1.158238026 -s 7 -d -1 -p AODV -e 44 -c 2 -a 0 -i 0 -k RTR
h -t 1.158238026 -s 7 -d -1 -p AODV -e 44 -c 2 -a 0 -i 0 -k RTR
+ -t 1.158313026 -s 7 -d -1 -p AODV -e 102 -c 2 -a 0 -i 0 -k MAC 
- -t 1.158313026 -s 7 -d -1 -p AODV -e 102 -c 2 -a 0 -i 0 -k MAC
h -t 1.158313026 -s 7 -d -1 -p AODV -e 102 -c 2 -a 0 -i 0 -k MAC
r -t 1.159129158 -s 6 -d -1 -p AODV -e 44 -c 2 -a 0 -i 0 -k MAC
r -t 1.159129324 -s 5 -d -1 -p AODV -e 44 -c 2 -a 0 -i 0 -k MAC
r -t 1.159129378 -s 1 -d -1 -p AODV -e 44 -c 2 -a 0 -i 0 -k MAC
r -t 1.159129417 -s 3 -d -1 -p AODV -e 44 -c 2 -a 0 -i 0 -k MAC
r -t 1.159129442 -s 9 -d -1 -p AODV -e 44 -c 2 -a 0 -i 0 -k MAC
r -t 1.159130154 -s 2 -d -1 -p AODV -e 44 -c 2 -a 0 -i 0 -k MAC
r -t 1.159130297 -s 8 -d -1 -p AODV -e 44 -c 2 -a 0 -i 0 -k MAC
r -t 1.159130315 -s 0 -d -1 -p AODV -e 44 -c 2 -a 0 -i 0 -k MAC
r -t 1.159154158 -s 6 -d -1 -p AODV -e 44 -c 2 -a 0 -i 0 -k RTR
r -t 1.159154324 -s 5 -d -1 -p AODV -e 44 -c 2 -a 0 -i 0 -k RTR
r -t 1.159154378 -s 1 -d -1 -p AODV -e 44 -c 2 -a 0 -i 0 -k RTR
r -t 1.159154417 -s 3 -d -1 -p AODV -e 44 -c 2 -a 0 -i 0 -k RTR
r -t 1.159154442 -s 9 -d -1 -p AODV -e 44 -c 2 -a 0 -i 0 -k RTR
r -t 1.159155154 -s 2 -d -1 -p AODV -e 44 -c 2 -a 0 -i 0 -k RTR
r -t 1.159155297 -s 8 -d -1 -p AODV -e 44 -c 2 -a 0 -i 0 -k RTR
r -t 1.159155315 -s 0 -d -1 -p AODV -e 44 -c 2 -a 0 -i 0 -k RTR
+ -t 1.598660572 -s 3 -d -1 -p AODV -e 44 -c 2 -a 0 -i 0 -k RTR 
- -t 1.598660572 -s 3 -d -1 -p AODV -e 44 -c 2 -a 0 -i 0 -k RTR
h -t 1.598660572 -s 3 -d -1 -p AODV -e 44 -c 2 -a 0 -i 0 -k RTR
+ -t 1.599015572 -s 3 -d -1 -p AODV -e 102 -c 2 -a 0 -i 0 -k MAC 
- -t 1.599015572 -s 3 -d -1 -p AODV -e 102 -c 2 -a 0 -i 0 -k MAC
h -t 1.599015572 -s 3 -d -1 -p AODV -e 102 -c 2 -a 0 -i 0 -k MAC
r -t 1.599831693 -s 5 -d -1 -p AODV -e 44 -c 2 -a 0 -i 0 -k MAC
r -t 1.599831963 -s 7 -d -1 -p AODV -e 44 -c 2 -a 0 -i 0 -k MAC
r -t 1.599831968 -s 6 -d -1 -p AODV -e 44 -c 2 -a 0 -i 0 -k MAC
r -t 1.599832307 -s 1 -d -1 -p AODV -e 44 -c 2 -a 0 -i 0 -k MAC
r -t 1.599832325 -s 2 -d -1 -p AODV -e 44 -c 2 -a 0 -i 0 -k MAC
r -t 1.599832379 -s 9 -d -1 -p AODV -e 44 -c 2 -a 0 -i 0 -k MAC
r -t 1.599832499 -s 8 -d -1 -p AODV -e 44 -c 2 -a 0 -i 0 -k MAC
r -t 1.599832554 -s 0 -d -1 -p AODV -e 44 -c 2 -a 0 -i 0 -k MAC
r -t 1.599856693 -s 5 -d -1 -p AODV -e 44 -c 2 -a 0 -i 0 -k RTR
r -t 1.599856963 -s 7 -d -1 -p AODV -e 44 -c 2 -a 0 -i 0 -k RTR
r -t 1.599856968 -s 6 -d -1 -p AODV -e 44 -c 2 -a 0 -i 0 -k RTR
r -t 1.599857307 -s 1 -d -1 -p AODV -e 44 -c 2 -a 0 -i 0 -k RTR
r -t 1.599857325 -s 2 -d -1 -p AODV -e 44 -c 2 -a 0 -i 0 -k RTR
r -t 1.599857379 -s 9 -d -1 -p AODV -e 44 -c 2 -a 0 -i 0 -k RTR
r -t 1.599857499 -s 8 -d -1 -p AODV -e 44 -c 2 -a 0 -i 0 -k RTR
r -t 1.599857554 -s 0 -d -1 -p AODV -e 44 -c 2 -a 0 -i 0 -k RTR
+ -t 1.620782603 -s 0 -d -1 -p AODV -e 44 -c 2 -a 0 -i 0 -k RTR 
- -t 1.620782603 -s 0 -d -1 -p AODV -e 44 -c 2 -a 0 -i 0 -k RTR
h -t 1.620782603 -s 0 -d -1 -p AODV -e 44 -c 2 -a 0 -i 0 -k RTR
+ -t 1.621097603 -s 0 -d -1 -p AODV -e 102 -c 2 -a 0 -i 0 -k MAC 
- -t 1.621097603 -s 0 -d -1 -p AODV -e 102 -c 2 -a 0 -i 0 -k MAC
h -t 1.621097603 -s 0 -d -1 -p AODV -e 102 -c 2 -a 0 -i 0 -k MAC
r -t 1.621914564 -s 2 -d -1 -p AODV -e 44 -c 2 -a 0 -i 0 -k MAC
r -t 1.621914585 -s 3 -d -1 -p AODV -e 44 -c 2 -a 0 -i 0 -k MAC
r -t 1.621914705 -s 5 -d -1 -p AODV -e 44 -c 2 -a 0 -i 0 -k MAC
r -t 1.621914811 -s 6 -d -1 -p AODV -e 44 -c 2 -a 0 -i 0 -k MAC
r -t 1.621914817 -s 8 -d -1 -p AODV -e 44 -c 2 -a 0 -i 0 -k MAC
r -t 1.621914892 -s 7 -d -1 -p AODV -e 44 -c 2 -a 0 -i 0 -k MAC
r -t 1.621939564 -s 2 -d -1 -p AODV -e 44 -c 2 -a 0 -i 0 -k RTR
r -t 1.621939585 -s 3 -d -1 -p AODV -e 44 -c 2 -a 0 -i 0 -k RTR
r -t 1.621939705 -s 5 -d -1 -p AODV -e 44 -c 2 -a 0 -i 0 -k RTR
r -t 1.621939811 -s 6 -d -1 -p AODV -e 44 -c 2 -a 0 -i 0 -k RTR
r -t 1.621939817 -s 8 -d -1 -p AODV -e 44 -c 2 -a 0 -i 0 -k RTR
r -t 1.621939892 -s 7 -d -1 -p AODV -e 44 -c 2 -a 0 -i 0 -k RTR
+ -t 1.712496544 -s 6 -d -1 -p AODV -e 44 -c 2 -a 0 -i 0 -k RTR 
- -t 1.712496544 -s 6 -d -1 -p AODV -e 44 -c 2 -a 0 -i 0 -k RTR
h -t 1.712496544 -s 6 -d -1 -p AODV -e 44 -c 2 -a 0 -i 0 -k RTR
+ -t 1.712611544 -s 6 -d -1 -p AODV -e 102 -c 2 -a 0 -i 0 -k MAC 
- -t 1.712611544 -s 6 -d -1 -p AODV -e 102 -c 2 -a 0 -i 0 -k MAC
h -t 1.712611544 -s 6 -d -1 -p AODV -e 102 -c 2 -a 0 -i 0 -k MAC
r -t 1.713427676 -s 7 -d -1 -p AODV -e 44 -c 2 -a 0 -i 0 -k MAC
r -t 1.713427882 -s 5 -d -1 -p AODV -e 44 -c 2 -a 0 -i 0 -k MAC
r -t 1.713427900 -s 1 -d -1 -p AODV -e 44 -c 2 -a 0 -i 0 -k MAC
r -t 1.713427940 -s 3 -d -1 -p AODV -e 44 -c 2 -a 0 -i 0 -k MAC
r -t 1.713427990 -s 9 -d -1 -p AODV -e 44 -c 2 -a 0 -i 0 -k MAC
r -t 1.713428694 -s 2 -d -1 -p AODV -e 44 -c 2 -a 0 -i 0 -k MAC
r -t 1.713428752 -s 0 -d -1 -p AODV -e 44 -c 2 -a 0 -i 0 -k MAC
r -t 1.713428859 -s 8 -d -1 -p AODV -e 44 -c 2 -a 0 -i 0 -k MAC
r -t 1.713452676 -s 7 -d -1 -p AODV -e 44 -c 2 -a 0 -i 0 -k RTR
r -t 1.713452882 -s 5 -d -1 -p AODV -e 44 -c 2 -a 0 -i 0 -k RTR
r -t 1.713452900 -s 1 -d -1 -p AODV -e 44 -c 2 -a 0 -i 0 -k RTR
r -t 1.713452940 -s 3 -d -1 -p AODV -e 44 -c 2 -a 0 -i 0 -k RTR
r -t 1.713452990 -s 9 -d -1 -p AODV -e 44 -c 2 -a 0 -i 0 -k RTR
r -t 1.713453694 -s 2 -d -1 -p AODV -e 44 -c 2 -a 0 -i 0 -k RTR
r -t 1.713453752 -s 0 -d -1 -p AODV -e 44 -c 2 -a 0 -i 0 -k RTR
r -t 1.713453859 -s 8 -d -1 -p AODV -e 44 -c 2 -a 0 -i 0 -k RTR
+ -t 1.888218277 -s 2 -d -1 -p AODV -e 44 -c 2 -a 0 -i 0 -k RTR 
- -t 1.888218277 -s 2 -d -1 -p AODV -e 44 -c 2 -a 0 -i 0 -k RTR
h -t 1.888218277 -s 2 -d -1 -p AODV -e 44 -c 2 -a 0 -i 0 -k RTR
+ -t 1.888493277 -s 2 -d -1 -p AODV -e 102 -c 2 -a 0 -i 0 -k MAC 
- -t 1.888493277 -s 2 -d -1 -p AODV -e 102 -c 2 -a 0 -i 0 -k MAC
h -t 1.888493277 -s 2 -d -1 -p AODV -e 102 -c 2 -a 0 -i 0 -k MAC
r -t 1.889309536 -s 8 -d -1 -p AODV -e 44 -c 2 -a 0 -i 0 -k MAC
r -t 1.889310030 -s 3 -d -1 -p AODV -e 44 -c 2 -a 0 -i 0 -k MAC
r -t 1.889310107 -s 5 -d -1 -p AODV -e 44 -c 2 -a 0 -i 0 -k MAC
r -t 1.889310238 -s 0 -d -1 -p AODV -e 44 -c 2 -a 0 -i 0 -k MAC
r -t 1.889310405 -s 7 -d -1 -p AODV -e 44 -c 2 -a 0 -i 0 -k MAC
r -t 1.889310427 -s 6 -d -1 -p AODV -e 44 -c 2 -a 0 -i 0 -k MAC
r -t 1.889310457 -s 4 -d -1 -p AODV -e 44 -c 2 -a 0 -i 0 -k MAC
r -t 1.889334536 -s 8 -d -1 -p AODV -e 44 -c 2 -a 0 -i 0 -k RTR
r -t 1.889335030 -s 3 -d -1 -p AODV -e 44 -c 2 -a 0 -i 0 -k RTR
r -t 1.889335107 -s 5 -d -1 -p AODV -e 44 -c 2 -a 0 -i 0 -k RTR
r -t 1.889335238 -s 0 -d -1 -p AODV -e 44 -c 2 -a 0 -i 0 -k RTR
r -t 1.889335405 -s 7 -d -1 -p AODV -e 44 -c 2 -a 0 -i 0 -k RTR
r -t 1.889335427 -s 6 -d -1 -p AODV -e 44 -c 2 -a 0 -i 0 -k RTR
r -t 1.889335457 -s 4 -d -1 -p AODV -e 44 -c 2 -a 0 -i 0 -k RTR
+ -t 2.018100385 -s 4 -d -1 -p AODV -e 44 -c 2 -a 0 -i 0 -k RTR 
- -t 2.018100385 -s 4 -d -1 -p AODV -e 44 -c 2 -a 0 -i 0 -k RTR
h -t 2.018100385 -s 4 -d -1 -p AODV -e 44 -c 2 -a 0 -i 0 -k RTR
+ -t 2.018435385 -s 4 -d -1 -p AODV -e 102 -c 2 -a 0 -i 0 -k MAC 
- -t 2.018435385 -s 4 -d -1 -p AODV -e 102 -c 2 -a 0 -i 0 -k MAC
h -t 2.018435385 -s 4 -d -1 -p AODV -e 102 -c 2 -a 0 -i 0 -k MAC
r -t 2.019252438 -s 8 -d -1 -p AODV -e 44 -c 2 -a 0 -i 0 -k MAC
r -t 2.019252565 -s 2 -d -1 -p AODV -e 44 -c 2 -a 0 -i 0 -k MAC
r -t 2.019277438 -s 8 -d -1 -p AODV -e 44 -c 2 -a 0 -i 0 -k RTR
r -t 2.019277565 -s 2 -d -1 -p AODV -e 44 -c 2 -a 0 -i 0 -k RTR
+ -t 2.061022649 -s 8 -d -1 -p AODV -e 44 -c 2 -a 0 -i 0 -k RTR 
- -t 2.061022649 -s 8 -d -1 -p AODV -e 44 -c 2 -a 0 -i 0 -k RTR
h -t 2.061022649 -s 8 -d -1 -p AODV -e 44 -c 2 -a 0 -i 0 -k RTR
+ -t 2.061437649 -s 8 -d -1 -p AODV -e 102 -c 2 -a 0 -i 0 -k MAC 