M 0.0 nn 15 x 530 y 530 rp AODV
M 0.0 sc setdes500x500.tcl cp cbr15node.tcl seed 1.0
M 0.0 prop Propagation/TwoRayGround ant Antenna/OmniAntenna
s 0.000000000 _0_ RTR  --- 0 AODV 44 [0 0 0 0] [energy 1.000000 ei 0.000 es 0.000 et 0.000 er 0.000] ------- [0:255 -1:255 1 0] [0x1 1 [0 2] 4.000000] (HELLO)
s 0.000000000 _1_ RTR  --- 0 AODV 44 [0 0 0 0] [energy 1.000000 ei 0.000 es 0.000 et 0.000 er 0.000] ------- [1:255 -1:255 1 0] [0x1 1 [1 2] 4.000000] (HELLO)
s 0.000000000 _2_ RTR  --- 0 AODV 44 [0 0 0 0] [energy 1.000000 ei 0.000 es 0.000 et 0.000 er 0.000] ------- [2:255 -1:255 1 0] [0x1 1 [2 2] 4.000000] (HELLO)
s 0.000000000 _3_ RTR  --- 0 AODV 44 [0 0 0 0] [energy 1.000000 ei 0.000 es 0.000 et 0.000 er 0.000] ------- [3:255 -1:255 1 0] [0x1 1 [3 2] 4.000000] (HELLO)
s 0.000000000 _4_ RTR  --- 0 AODV 44 [0 0 0 0] [energy 1.000000 ei 0.000 es 0.000 et 0.000 er 0.000] ------- [4:255 -1:255 1 0] [0x1 1 [4 2] 4.000000] (HELLO)
s 0.000000000 _5_ RTR  --- 0 AODV 44 [0 0 0 0] [energy 1.000000 ei 0.000 es 0.000 et 0.000 er 0.000] ------- [5:255 -1:255 1 0] [0x1 1 [5 2] 4.000000] (HELLO)
s 0.000000000 _6_ RTR  --- 0 AODV 44 [0 0 0 0] [energy 1.000000 ei 0.000 es 0.000 et 0.000 er 0.000] ------- [6:255 -1:255 1 0] [0x1 1 [6 2] 4.000000] (HELLO)
s 0.000000000 _7_ RTR  --- 0 AODV 44 [0 0 0 0] [energy 1.000000 ei 0.000 es 0.000 et 0.000 er 0.000] ------- [7:255 -1:255 1 0] [0x1 1 [7 2] 4.000000] (HELLO)
s 0.000000000 _8_ RTR  --- 0 AODV 44 [0 0 0 0] [energy 1.000000 ei 0.000 es 0.000 et 0.000 er 0.000] ------- [8:255 -1:255 1 0] [0x1 1 [8 2] 4.000000] (HELLO)
s 0.000000000 _9_ RTR  --- 0 AODV 44 [0 0 0 0] [energy 1.000000 ei 0.000 es 0.000 et 0.000 er 0.000] ------- [9:255 -1:255 1 0] [0x1 1 [9 2] 4.000000] (HELLO)
s 0.000000000 _10_ RTR  --- 0 AODV 44 [0 0 0 0] [energy 1.000000 ei 0.000 es 0.000 et 0.000 er 0.000] ------- [10:255 -1:255 1 0] [0x1 1 [10 2] 4.000000] (HELLO)
s 0.000000000 _11_ RTR  --- 0 AODV 44 [0 0 0 0] [energy 1.000000 ei 0.000 es 0.000 et 0.000 er 0.000] ------- [11:255 -1:255 1 0] [0x1 1 [11 2] 4.000000] (HELLO)
s 0.000000000 _12_ RTR  --- 0 AODV 44 [0 0 0 0] [energy 1.000000 ei 0.000 es 0.000 et 0.000 er 0.000] ------- [12:255 -1:255 1 0] [0x1 1 [12 2] 4.000000] (HELLO)
s 0.000000000 _13_ RTR  --- 0 AODV 44 [0 0 0 0] [energy 1.000000 ei 0.000 es 0.000 et 0.000 er 0.000] ------- [13:255 -1:255 1 0] [0x1 1 [13 2] 4.000000] (HELLO)
s 0.000000000 _14_ RTR  --- 0 AODV 44 [0 0 0 0] [energy 1.000000 ei 0.000 es 0.000 et 0.000 er 0.000] ------- [14:255 -1:255 1 0] [0x1 1 [14 2] 4.000000] (HELLO)
s 0.000095000 _8_ MAC  --- 0 AODV 102 [0 ffffffff 8 800] [energy 1.000000 ei 0.000 es 0.000 et 0.000 er 0.000] ------- [8:255 -1:255 1 0] [0x1 1 [8 2] 4.000000] (HELLO)
N -t 0.000096 -n 10 -e 0.999832
N -t 0.000096 -n 9 -e 0.999832
s 0.000235000 _2_ MAC  --- 0 AODV 102 [0 ffffffff 2 800] [energy 1.000000 ei 0.000 es 0.000 et 0.000 er 0.000] ------- [2:255 -1:255 1 0] [0x1 1 [2 2] 4.000000] (HELLO)
N -t 0.000236 -n 1 -e 0.999825
N -t 0.000236 -n 3 -e 0.999825
N -t 0.000236 -n 11 -e 0.999825
N -t 0.000236 -n 10 -e 0.999804
s 0.000275000 _6_ MAC  --- 0 AODV 102 [0 ffffffff 6 800] [energy 1.000000 ei 0.000 es 0.000 et 0.000 er 0.000] ------- [6:255 -1:255 1 0] [0x1 1 [6 2] 4.000000] (HELLO)
N -t 0.000275 -n 5 -e 0.999823
N -t 0.000276 -n 4 -e 0.999823
N -t 0.000276 -n 12 -e 0.999823
N -t 0.000276 -n 7 -e 0.999823
N -t 0.000276 -n 13 -e 0.999823
N -t 0.000276 -n 14 -e 0.999823
s 0.000435000 _0_ MAC  --- 0 AODV 102 [0 ffffffff 0 800] [energy 1.000000 ei 0.000 es 0.000 et 0.000 er 0.000] ------- [0:255 -1:255 1 0] [0x1 1 [0 2] 4.000000] (HELLO)
N -t 0.000436 -n 1 -e 0.999785
r 0.000911667 _10_ MAC  --- 0 AODV 44 [0 ffffffff 8 800] [energy 0.999804 ei 0.000 es 0.000 et 0.000 er 0.000] ------- [8:255 -1:255 1 0] [0x1 1 [8 2] 4.000000] (HELLO)
r 0.000911745 _9_ MAC  --- 0 AODV 44 [0 ffffffff 8 800] [energy 0.999832 ei 0.000 es 0.000 et 0.000 er 0.000] ------- [8:255 -1:255 1 0] [0x1 1 [8 2] 4.000000] (HELLO)
r 0.000936667 _10_ RTR  --- 0 AODV 44 [0 ffffffff 8 800] [energy 0.999804 ei 0.000 es 0.000 et 0.000 er 0.000] ------- [8:255 -1:255 1 0] [0x1 1 [8 2] 4.000000] (HELLO)
r 0.000936745 _9_ RTR  --- 0 AODV 44 [0 ffffffff 8 800] [energy 0.999832 ei 0.000 es 0.000 et 0.000 er 0.000] ------- [8:255 -1:255 1 0] [0x1 1 [8 2] 4.000000] (HELLO)
r 0.001051665 _1_ MAC  --- 0 AODV 44 [0 ffffffff 2 800] [energy 0.999785 ei 0.000 es 0.000 et 0.000 er 0.000] ------- [2:255 -1:255 1 0] [0x1 1 [2 2] 4.000000] (HELLO)
r 0.001051745 _3_ MAC  --- 0 AODV 44 [0 ffffffff 2 800] [energy 0.999825 ei 0.000 es 0.000 et 0.000 er 0.000] ------- [2:255 -1:255 1 0] [0x1 1 [2 2] 4.000000] (HELLO)
r 0.001052002 _11_ MAC  --- 0 AODV 44 [0 ffffffff 2 800] [energy 0.999825 ei 0.000 es 0.000 et 0.000 er 0.000] ------- [2:255 -1:255 1 0] [0x1 1 [2 2] 4.000000] (HELLO)
r 0.001076665 _1_ RTR  --- 0 AODV 44 [0 ffffffff 2 800] [energy 0.999785 ei 0.000 es 0.000 et 0.000 er 0.000] ------- [2:255 -1:255 1 0] [0x1 1 [2 2] 4.000000] (HELLO)
r 0.001076745 _3_ RTR  --- 0 AODV 44 [0 ffffffff 2 800] [energy 0.999825 ei 0.000 es 0.000 et 0.000 er 0.000] ------- [2:255 -1:255 1 0] [0x1 1 [2 2] 4.000000] (HELLO)
r 0.001077002 _11_ RTR  --- 0 AODV 44 [0 ffffffff 2 800] [energy 0.999825 ei 0.000 es 0.000 et 0.000 er 0.000] ------- [2:255 -1:255 1 0] [0x1 1 [2 2] 4.000000] (HELLO)
r 0.001091471 _5_ MAC  --- 0 AODV 44 [0 ffffffff 6 800] [energy 0.999823 ei 0.000 es 0.000 et 0.000 er 0.000] ------- [6:255 -1:255 1 0] [0x1 1 [6 2] 4.000000] (HELLO)
r 0.001091667 _4_ MAC  --- 0 AODV 44 [0 ffffffff 6 800] [energy 0.999823 ei 0.000 es 0.000 et 0.000 er 0.000] ------- [6:255 -1:255 1 0] [0x1 1 [6 2] 4.000000] (HELLO)
r 0.001091667 _12_ MAC  --- 0 AODV 44 [0 ffffffff 6 800] [energy 0.999823 ei 0.000 es 0.000 et 0.000 er 0.000] ------- [6:255 -1:255 1 0] [0x1 1 [6 2] 4.000000] (HELLO)
r 0.001091745 _7_ MAC  --- 0 AODV 44 [0 ffffffff 6 800] [energy 0.999823 ei 0.000 es 0.000 et 0.000 er 0.000] ------- [6:255 -1:255 1 0] [0x1 1 [6 2] 4.000000] (HELLO)
r 0.001092000 _13_ MAC  --- 0 AODV 44 [0 ffffffff 6 800] [energy 0.999823 ei 0.000 es 0.000 et 0.000 er 0.000] ------- [6:255 -1:255 1 0] [0x1 1 [6 2] 4.000000] (HELLO)
r 0.001092202 _14_ MAC  --- 0 AODV 44 [0 ffffffff 6 800] [energy 0.999823 ei 0.000 es 0.000 et 0.000 er 0.000] ------- [6:255 -1:255 1 0] [0x1 1 [6 2] 4.000000] (HELLO)
r 0.001116471 _5_ RTR  --- 0 AODV 44 [0 ffffffff 6 800] [energy 0.999823 ei 0.000 es 0.000 et 0.000 er 0.000] ------- [6:255 -1:255 1 0] [0x1 1 [6 2] 4.000000] (HELLO)
r 0.001116667 _4_ RTR  --- 0 AODV 44 [0 ffffffff 6 800] [energy 0.999823 ei 0.000 es 0.000 et 0.000 er 0.000] ------- [6:255 -1:255 1 0] [0x1 1 [6 2] 4.000000] (HELLO)
r 0.001116667 _12_ RTR  --- 0 AODV 44 [0 ffffffff 6 800] [energy 0.999823 ei 0.000 es 0.000 et 0.000 er 0.000] ------- [6:255 -1:255 1 0] [0x1 1 [6 2] 4.000000] (HELLO)
r 0.001116745 _7_ RTR  --- 0 AODV 44 [0 ffffffff 6 800] [energy 0.999823 ei 0.000 es 0.000 et 0.000 er 0.000] ------- [6:255 -1:255 1 0] [0x1 1 [6 2] 4.000000] (HELLO)
r 0.001117000 _13_ RTR  --- 0 AODV 44 [0 ffffffff 6 800] [energy 0.999823 ei 0.000 es 0.000 et 0.000 er 0.000] ------- [6:255 -1:255 1 0] [0x1 1 [6 2] 4.000000] (HELLO)
r 0.001117202 _14_ RTR  --- 0 AODV 44 [0 ffffffff 6 800] [energy 0.999823 ei 0.000 es 0.000 et 0.000 er 0.000] ------- [6:255 -1:255 1 0] [0x1 1 [6 2] 4.000000] (HELLO)
s 0.001122002 _11_ MAC  --- 0 AODV 102 [0 ffffffff b 800] [energy 0.999825 ei 0.000 es 0.000 et 0.000 er 0.000] ------- [11:255 -1:255 1 0] [0x1 1 [11 2] 4.000000] (HELLO)
N -t 0.001122 -n 3 -e 0.999658
N -t 0.001123 -n 2 -e 0.999658
N -t 0.001123 -n 4 -e 0.999658
s 0.001161745 _7_ MAC  --- 0 AODV 102 [0 ffffffff 7 800] [energy 0.999823 ei 0.000 es 0.000 et 0.000 er 0.000] ------- [7:255 -1:255 1 0] [0x1 1 [7 2] 4.000000] (HELLO)
N -t 0.001162 -n 6 -e 0.999656
N -t 0.001163 -n 13 -e 0.999656
N -t 0.001163 -n 9 -e 0.999656
N -t 0.001163 -n 5 -e 0.999656
N -t 0.001163 -n 4 -e 0.999650
D 0.001162947 _4_ MAC  COL 0 AODV 102 [0 ffffffff b 800] [energy 0.999650 ei 0.000 es 0.000 et 0.000 er 0.000] ------- [11:255 -1:255 1 0] [0x1 1 [11 2] 4.000000] (HELLO)
s 0.001482202 _14_ MAC  --- 0 AODV 102 [0 ffffffff e 800] [energy 0.999823 ei 0.000 es 0.000 et 0.000 er 0.000] ------- [14:255 -1:255 1 0] [0x1 1 [14 2] 4.000000] (HELLO)
N -t 0.001483 -n 13 -e 0.999592
D 0.001482869 _13_ MAC  COL 0 AODV 102 [0 ffffffff 7 800] [energy 0.999592 ei 0.000 es 0.000 et 0.000 er 0.000] ------- [7:255 -1:255 1 0] [0x1 1 [7 2] 4.000000] (HELLO)
N -t 0.001483 -n 5 -e 0.999592
D 0.001482947 _5_ MAC  COL 0 AODV 102 [0 ffffffff 7 800] [energy 0.999592 ei 0.000 es 0.000 et 0.000 er 0.000] ------- [7:255 -1:255 1 0] [0x1 1 [7 2] 4.000000] (HELLO)
N -t 0.001483 -n 12 -e 0.999640
N -t 0.001483 -n 6 -e 0.999592
D 0.001483404 _6_ MAC  COL 0 AODV 102 [0 ffffffff 7 800] [energy 0.999592 ei 0.000 es 0.000 et 0.000 er 0.000] ------- [7:255 -1:255 1 0] [0x1 1 [7 2] 4.000000] (HELLO)
s 0.001746202 _1_ MAC  --- 0 AODV 102 [0 ffffffff 1 800] [energy 0.999785 ei 0.000 es 0.000 et 0.000 er 0.000] ------- [1:255 -1:255 1 0] [0x1 1 [1 2] 4.000000] (HELLO)
N -t 0.001747 -n 2 -e 0.999533
D 0.001746867 _2_ MAC  COL 0 AODV 102 [0 ffffffff b 800] [energy 0.999533 ei 0.000 es 0.000 et 0.000 er 0.000] ------- [11:255 -1:255 1 0] [0x1 1 [11 2] 4.000000] (HELLO)
N -t 0.001747 -n 10 -e 0.999606
N -t 0.001747 -n 0 -e 0.999627
r 0.001938475 _3_ MAC  --- 0 AODV 44 [0 ffffffff b 800] [energy 0.999658 ei 0.000 es 0.000 et 0.000 er 0.000] ------- [11:255 -1:255 1 0] [0x1 1 [11 2] 4.000000] (HELLO)
r 0.001963475 _3_ RTR  --- 0 AODV 44 [0 ffffffff b 800] [energy 0.999658 ei 0.000 es 0.000 et 0.000 er 0.000] ------- [11:255 -1:255 1 0] [0x1 1 [11 2] 4.000000] (HELLO)
r 0.001978744 _9_ MAC  --- 0 AODV 44 [0 ffffffff 7 800] [energy 0.999656 ei 0.000 es 0.000 et 0.000 er 0.000] ------- [7:255 -1:255 1 0] [0x1 1 [7 2] 4.000000] (HELLO)
D 0.001978947 _4_ MAC  COL 0 AODV 102 [0 ffffffff 7 800] [energy 0.999650 ei 0.000 es 0.000 et 0.000 er 0.000] ------- [7:255 -1:255 1 0] [0x1 1 [7 2] 4.000000] (HELLO)
r 0.002003744 _9_ RTR  --- 0 AODV 44 [0 ffffffff 7 800] [energy 0.999656 ei 0.000 es 0.000 et 0.000 er 0.000] ------- [7:255 -1:255 1 0] [0x1 1 [7 2] 4.000000] (HELLO)
s 0.002048744 _9_ MAC  --- 0 AODV 102 [0 ffffffff 9 800] [energy 0.999656 ei 0.000 es 0.000 et 0.000 er 0.000] ------- [9:255 -1:255 1 0] [0x1 1 [9 2] 4.000000] (HELLO)
N -t 0.002049 -n 8 -e 0.999612
N -t 0.002050 -n 7 -e 0.999490
s 0.002288475 _3_ MAC  --- 0 AODV 102 [0 ffffffff 3 800] [energy 0.999658 ei 0.000 es 0.000 et 0.000 er 0.000] ------- [3:255 -1:255 1 0] [0x1 1 [3 2] 4.000000] (HELLO)
N -t 0.002289 -n 11 -e 0.999478
N -t 0.002289 -n 2 -e 0.999425
D 0.002289221 _2_ MAC  COL 0 AODV 102 [0 ffffffff 1 800] [energy 0.999425 ei 0.000 es 0.000 et 0.000 er 0.000] ------- [1:255 -1:255 1 0] [0x1 1 [1 2] 4.000000] (HELLO)
N -t 0.002289 -n 4 -e 0.999472
D 0.002298869 _13_ MAC  COL 0 AODV 102 [0 ffffffff e 800] [energy 0.999592 ei 0.000 es 0.000 et 0.000 er 0.000] ------- [14:255 -1:255 1 0] [0x1 1 [14 2] 4.000000] (HELLO)
D 0.002298947 _5_ MAC  COL 0 AODV 102 [0 ffffffff e 800] [energy 0.999592 ei 0.000 es 0.000 et 0.000 er 0.000] ------- [14:255 -1:255 1 0] [0x1 1 [14 2] 4.000000] (HELLO)
r 0.002299202 _12_ MAC  --- 0 AODV 44 [0 ffffffff e 800] [energy 0.999640 ei 0.000 es 0.000 et 0.000 er 0.000] ------- [14:255 -1:255 1 0] [0x1 1 [14 2] 4.000000] (HELLO)
D 0.002299404 _6_ MAC  COL 0 AODV 102 [0 ffffffff e 800] [energy 0.999592 ei 0.000 es 0.000 et 0.000 er 0.000] ------- [14:255 -1:255 1 0] [0x1 1 [14 2] 4.000000] (HELLO)
r 0.002324202 _12_ RTR  --- 0 AODV 44 [0 ffffffff e 800] [energy 0.999640 ei 0.000 es 0.000 et 0.000 er 0.000] ------- [14:255 -1:255 1 0] [0x1 1 [14 2] 4.000000] (HELLO)
s 0.002389202 _12_ MAC  --- 0 AODV 102 [0 ffffffff c 800] [energy 0.999640 ei 0.000 es 0.000 et 0.000 er 0.000] ------- [12:255 -1:255 1 0] [0x1 1 [12 2] 4.000000] (HELLO)
N -t 0.002390 -n 5 -e 0.999424
N -t 0.002390 -n 6 -e 0.999424
N -t 0.002390 -n 4 -e 0.999451
D 0.002390145 _4_ MAC  COL 0 AODV 102 [0 ffffffff 3 800] [energy 0.999451 ei 0.000 es 0.000 et 0.000 er 0.001] ------- [3:255 -1:255 1 0] [0x1 1 [3 2] 4.000000] (HELLO)
N -t 0.002390 -n 14 -e 0.999472
N -t 0.002390 -n 13 -e 0.999424
r 0.002562947 _10_ MAC  --- 0 AODV 44 [0 ffffffff 1 800] [energy 0.999606 ei 0.000 es 0.000 et 0.000 er 0.000] ------- [1:255 -1:255 1 0] [0x1 1 [1 2] 4.000000] (HELLO)
r 0.002563404 _0_ MAC  --- 0 AODV 44 [0 ffffffff 1 800] [energy 0.999627 ei 0.000 es 0.000 et 0.000 er 0.000] ------- [1:255 -1:255 1 0] [0x1 1 [1 2] 4.000000] (HELLO)
r 0.002587947 _10_ RTR  --- 0 AODV 44 [0 ffffffff 1 800] [energy 0.999606 ei 0.000 es 0.000 et 0.000 er 0.000] ------- [1:255 -1:255 1 0] [0x1 1 [1 2] 4.000000] (HELLO)
r 0.002588404 _0_ RTR  --- 0 AODV 44 [0 ffffffff 1 800] [energy 0.999627 ei 0.000 es 0.000 et 0.000 er 0.000] ------- [1:255 -1:255 1 0] [0x1 1 [1 2] 4.000000] (HELLO)
s 0.002752947 _10_ MAC  --- 0 AODV 102 [0 ffffffff a 800] [energy 0.999606 ei 0.000 es 0.000 et 0.000 er 0.000] ------- [10:255 -1:255 1 0] [0x1 1 [10 2] 4.000000] (HELLO)
N -t 0.002754 -n 8 -e 0.999471
D 0.002753614 _8_ MAC  COL 0 AODV 102 [0 ffffffff 9 800] [energy 0.999471 ei 0.000 es 0.000 et 0.000 er 0.000] ------- [9:255 -1:255 1 0] [0x1 1 [9 2] 4.000000] (HELLO)
N -t 0.002754 -n 1 -e 0.999424
N -t 0.002754 -n 2 -e 0.999332
D 0.002754147 _2_ MAC  COL 0 AODV 102 [0 ffffffff 3 800] [energy 0.999332 ei 0.000 es 0.000 et 0.000 er 0.000] ------- [3:255 -1:255 1 0] [0x1 1 [3 2] 4.000000] (HELLO)
r 0.002865742 _7_ MAC  --- 0 AODV 44 [0 ffffffff 9 800] [energy 0.999490 ei 0.000 es 0.000 et 0.000 er 0.000] ------- [9:255 -1:255 1 0] [0x1 1 [9 2] 4.000000] (HELLO)
r 0.002890742 _7_ RTR  --- 0 AODV 44 [0 ffffffff 9 800] [energy 0.999490 ei 0.000 es 0.000 et 0.000 er 0.000] ------- [9:255 -1:255 1 0] [0x1 1 [9 2] 4.000000] (HELLO)
r 0.003104949 _11_ MAC  --- 0 AODV 44 [0 ffffffff 3 800] [energy 0.999478 ei 0.000 es 0.000 et 0.000 er 0.000] ------- [3:255 -1:255 1 0] [0x1 1 [3 2] 4.000000] (HELLO)
r 0.003129949 _11_ RTR  --- 0 AODV 44 [0 ffffffff 3 800] [energy 0.999478 ei 0.000 es 0.000 et 0.000 er 0.000] ------- [3:255 -1:255 1 0] [0x1 1 [3 2] 4.000000] (HELLO)
r 0.003205673 _5_ MAC  --- 0 AODV 44 [0 ffffffff c 800] [energy 0.999424 ei 0.000 es 0.000 et 0.000 er 0.001] ------- [12:255 -1:255 1 0] [0x1 1 [12 2] 4.000000] (HELLO)
r 0.003205869 _6_ MAC  --- 0 AODV 44 [0 ffffffff c 800] [energy 0.999424 ei 0.000 es 0.000 et 0.000 er 0.000] ------- [12:255 -1:255 1 0] [0x1 1 [12 2] 4.000000] (HELLO)
D 0.003206145 _4_ MAC  COL 0 AODV 102 [0 ffffffff c 800] [energy 0.999451 ei 0.000 es 0.000 et 0.000 er 0.001] ------- [12:255 -1:255 1 0] [0x1 1 [12 2] 4.000000] (HELLO)
r 0.003206202 _14_ MAC  --- 0 AODV 44 [0 ffffffff c 800] [energy 0.999472 ei 0.000 es 0.000 et 0.000 er 0.000] ------- [12:255 -1:255 1 0] [0x1 1 [12 2] 4.000000] (HELLO)
r 0.003206404 _13_ MAC  --- 0 AODV 44 [0 ffffffff c 800] [energy 0.999424 ei 0.000 es 0.000 et 0.000 er 0.001] ------- [12:255 -1:255 1 0] [0x1 1 [12 2] 4.000000] (HELLO)
r 0.003230673 _5_ RTR  --- 0 AODV 44 [0 ffffffff c 800] [energy 0.999424 ei 0.000 es 0.000 et 0.000 er 0.001] ------- [12:255 -1:255 1 0] [0x1 1 [12 2] 4.000000] (HELLO)
r 0.003230869 _6_ RTR  --- 0 AODV 44 [0 ffffffff c 800] [energy 0.999424 ei 0.000 es 0.000 et 0.000 er 0.000] ------- [12:255 -1:255 1 0] [0x1 1 [12 2] 4.000000] (HELLO)
r 0.003231202 _14_ RTR  --- 0 AODV 44 [0 ffffffff c 800] [energy 0.999472 ei 0.000 es 0.000 et 0.000 er 0.000] ------- [12:255 -1:255 1 0] [0x1 1 [12 2] 4.000000] (HELLO)
r 0.003231404 _13_ RTR  --- 0 AODV 44 [0 ffffffff c 800] [energy 0.999424 ei 0.000 es 0.000 et 0.000 er 0.001] ------- [12:255 -1:255 1 0] [0x1 1 [12 2] 4.000000] (HELLO)
s 0.003355673 _5_ MAC  --- 0 AODV 102 [0 ffffffff 5 800] [energy 0.999424 ei 0.000 es 0.000 et 0.000 er 0.001] ------- [5:255 -1:255 1 0] [0x1 1 [5 2] 4.000000] (HELLO)
N -t 0.003356 -n 12 -e 0.999302
N -t 0.003356 -n 6 -e 0.999254
N -t 0.003356 -n 13 -e 0.999254
N -t 0.003356 -n 14 -e 0.999302
N -t 0.003357 -n 7 -e 0.999302
N -t 0.003357 -n 4 -e 0.999281
D 0.003569614 _8_ MAC  COL 0 AODV 102 [0 ffffffff a 800] [energy 0.999471 ei 0.000 es 0.000 et 0.000 er 0.000] ------- [10:255 -1:255 1 0] [0x1 1 [10 2] 4.000000] (HELLO)
r 0.003569693 _1_ MAC  --- 0 AODV 44 [0 ffffffff a 800] [energy 0.999424 ei 0.000 es 0.000 et 0.000 er 0.000] ------- [10:255 -1:255 1 0] [0x1 1 [10 2] 4.000000] (HELLO)
D 0.003570147 _2_ MAC  COL 0 AODV 102 [0 ffffffff a 800] [energy 0.999332 ei 0.000 es 0.000 et 0.000 er 0.000] ------- [10:255 -1:255 1 0] [0x1 1 [10 2] 4.000000] (HELLO)
r 0.003594693 _1_ RTR  --- 0 AODV 44 [0 ffffffff a 800] [energy 0.999424 ei 0.000 es 0.000 et 0.000 er 0.000] ------- [10:255 -1:255 1 0] [0x1 1 [10 2] 4.000000] (HELLO)
r 0.004172145 _12_ MAC  --- 0 AODV 44 [0 ffffffff 5 800] [energy 0.999302 ei 0.000 es 0.000 et 0.000 er 0.000] ------- [5:255 -1:255 1 0] [0x1 1 [5 2] 4.000000] (HELLO)
r 0.004172145 _6_ MAC  --- 0 AODV 44 [0 ffffffff 5 800] [energy 0.999254 ei 0.000 es 0.000 et 0.000 er 0.001] ------- [5:255 -1:255 1 0] [0x1 1 [5 2] 4.000000] (HELLO)
r 0.004172419 _13_ MAC  --- 0 AODV 44 [0 ffffffff 5 800] [energy 0.999254 ei 0.000 es 0.000 et 0.000 er 0.001] ------- [5:255 -1:255 1 0] [0x1 1 [5 2] 4.000000] (HELLO)
r 0.004172419 _14_ MAC  --- 0 AODV 44 [0 ffffffff 5 800] [energy 0.999302 ei 0.000 es 0.000 et 0.000 er 0.000] ------- [5:255 -1:255 1 0] [0x1 1 [5 2] 4.000000] (HELLO)
r 0.004172673 _7_ MAC  --- 0 AODV 44 [0 ffffffff 5 800] [energy 0.999302 ei 0.000 es 0.000 et 0.000 er 0.000] ------- [5:255 -1:255 1 0] [0x1 1 [5 2] 4.000000] (HELLO)
r 0.004172727 _4_ MAC  --- 0 AODV 44 [0 ffffffff 5 800] [energy 0.999281 ei 0.000 es 0.000 et 0.000 er 0.001] ------- [5:255 -1:255 1 0] [0x1 1 [5 2] 4.000000] (HELLO)
r 0.004197145 _12_ RTR  --- 0 AODV 44 [0 ffffffff 5 800] [energy 0.999302 ei 0.000 es 0.000 et 0.000 er 0.000] ------- [5:255 -1:255 1 0] [0x1 1 [5 2] 4.000000] (HELLO)
r 0.004197145 _6_ RTR  --- 0 AODV 44 [0 ffffffff 5 800] [energy 0.999254 ei 0.000 es 0.000 et 0.000 er 0.001] ------- [5:255 -1:255 1 0] [0x1 1 [5 2] 4.000000] (HELLO)
r 0.004197419 _13_ RTR  --- 0 AODV 44 [0 ffffffff 5 800] [energy 0.999254 ei 0.000 es 0.000 et 0.000 er 0.001] ------- [5:255 -1:255 1 0] [0x1 1 [5 2] 4.000000] (HELLO)
r 0.004197419 _14_ RTR  --- 0 AODV 44 [0 ffffffff 5 800] [energy 0.999302 ei 0.000 es 0.000 et 0.000 er 0.000] ------- [5:255 -1:255 1 0] [0x1 1 [5 2] 4.000000] (HELLO)
r 0.004197673 _7_ RTR  --- 0 AODV 44 [0 ffffffff 5 800] [energy 0.999302 ei 0.000 es 0.000 et 0.000 er 0.000] ------- [5:255 -1:255 1 0] [0x1 1 [5 2] 4.000000] (HELLO)
r 0.004197727 _4_ RTR  --- 0 AODV 44 [0 ffffffff 5 800] [energy 0.999281 ei 0.000 es 0.000 et 0.000 er 0.001] ------- [5:255 -1:255 1 0] [0x1 1 [5 2] 4.000000] (HELLO)
s 0.004302419 _13_ MAC  --- 0 AODV 102 [0 ffffffff d 800] [energy 0.999254 ei 0.000 es 0.000 et 0.000 er 0.001] ------- [13:255 -1:255 1 0] [0x1 1 [13 2] 4.000000] (HELLO)
N -t 0.004303 -n 14 -e 0.999132
N -t 0.004303 -n 5 -e 0.999084
N -t 0.004303 -n 7 -e 0.999132
N -t 0.004303 -n 6 -e 0.999084
N -t 0.004304 -n 12 -e 0.999132
s 0.004362727 _4_ MAC  --- 0 AODV 102 [0 ffffffff 4 800] [energy 0.999281 ei 0.000 es 0.000 et 0.000 er 0.001] ------- [4:255 -1:255 1 0] [0x1 1 [4 2] 4.000000] (HELLO)
N -t 0.004363 -n 6 -e 0.999072
D 0.004363394 _6_ MAC  COL 0 AODV 102 [0 ffffffff d 800] [energy 0.999072 ei 0.000 es 0.000 et 0.000 er 0.001] ------- [13:255 -1:255 1 0] [0x1 1 [13 2] 4.000000] (HELLO)
N -t 0.004363 -n 3 -e 0.999251
N -t 0.004364 -n 12 -e 0.999120
D 0.004363670 _12_ MAC  COL 0 AODV 102 [0 ffffffff d 800] [energy 0.999120 ei 0.000 es 0.000 et 0.000 er 0.001] ------- [13:255 -1:255 1 0] [0x1 1 [13 2] 4.000000] (HELLO)
N -t 0.004364 -n 11 -e 0.999251
N -t 0.004364 -n 5 -e 0.999072
D 0.004363781 _5_ MAC  COL 0 AODV 102 [0 ffffffff d 800] [energy 0.999072 ei 0.000 es 0.000 et 0.000 er 0.001] ------- [13:255 -1:255 1 0] [0x1 1 [13 2] 4.000000] (HELLO)
N -t 0.004364 -n 7 -e 0.999120
D 0.004363929 _7_ MAC  COL 0 AODV 102 [0 ffffffff d 800] [energy 0.999120 ei 0.000 es 0.000 et 0.000 er 0.001] ------- [13:255 -1:255 1 0] [0x1 1 [13 2] 4.000000] (HELLO)
r 0.005119085 _14_ MAC  --- 0 AODV 44 [0 ffffffff d 800] [energy 0.999132 ei 0.000 es 0.000 et 0.000 er 0.001] ------- [13:255 -1:255 1 0] [0x1 1 [13 2] 4.000000] (HELLO)
r 0.005144085 _14_ RTR  --- 0 AODV 44 [0 ffffffff d 800] [energy 0.999132 ei 0.000 es 0.000 et 0.000 er 0.001] ------- [13:255 -1:255 1 0] [0x1 1 [13 2] 4.000000] (HELLO)
D 0.005179394 _6_ MAC  COL 0 AODV 102 [0 ffffffff 4 800] [energy 0.999072 ei 0.000 es 0.000 et 0.000 er 0.001] ------- [4:255 -1:255 1 0] [0x1 1 [4 2] 4.000000] (HELLO)
r 0.005179473 _3_ MAC  --- 0 AODV 44 [0 ffffffff 4 800] [energy 0.999251 ei 0.000 es 0.000 et 0.000 er 0.000] ------- [4:255 -1:255 1 0] [0x1 1 [4 2] 4.000000] (HELLO)
D 0.005179670 _12_ MAC  COL 0 AODV 102 [0 ffffffff 4 800] [energy 0.999120 ei 0.000 es 0.000 et 0.000 er 0.001] ------- [4:255 -1:255 1 0] [0x1 1 [4 2] 4.000000] (HELLO)
r 0.005179729 _11_ MAC  --- 0 AODV 44 [0 ffffffff 4 800] [energy 0.999251 ei 0.000 es 0.000 et 0.000 er 0.000] ------- [4:255 -1:255 1 0] [0x1 1 [4 2] 4.000000] (HELLO)
D 0.005179781 _5_ MAC  COL 0 AODV 102 [0 ffffffff 4 800] [energy 0.999072 ei 0.000 es 0.000 et 0.000 er 0.001] ------- [4:255 -1:255 1 0] [0x1 1 [4 2] 4.000000] (HELLO)
D 0.005179929 _7_ MAC  COL 0 AODV 102 [0 ffffffff 4 800] [energy 0.999120 ei 0.000 es 0.000 et 0.000 er 0.001] ------- [4:255 -1:255 1 0] [0x1 1 [4 2] 4.000000] (HELLO)
r 0.005204473 _3_ RTR  --- 0 AODV 44 [0 ffffffff 4 800] [energy 0.999251 ei 0.000 es 0.000 et 0.000 er 0.000] ------- [4:255 -1:255 1 0] [0x1 1 [4 2] 4.000000] (HELLO)
r 0.005204729 _11_ RTR  --- 0 AODV 44 [0 ffffffff 4 800] [energy 0.999251 ei 0.000 es 0.000 et 0.000 er 0.000] ------- [4:255 -1:255 1 0] [0x1 1 [4 2] 4.000000] (HELLO)
s 0.750169789 _0_ RTR  --- 0 AODV 44 [0 0 0 0] [energy 0.999627 ei 0.000 es 0.000 et 0.000 er 0.000] ------- [0:255 -1:255 1 0] [0x1 1 [0 4] 4.000000] (HELLO)
s 0.750744789 _0_ MAC  --- 0 AODV 102 [0 ffffffff 0 800] [energy 0.999627 ei 0.000 es 0.000 et 0.000 er 0.000] ------- [0:255 -1:255 1 0] [0x1 1 [0 4] 4.000000] (HELLO)
N -t 0.750746 -n 1 -e 0.961902
r 0.751561991 _1_ MAC  --- 0 AODV 44 [0 ffffffff 0 800] [energy 0.961902 ei 0.037 es 0.000 et 0.000 er 0.001] ------- [0:255 -1:255 1 0] [0x1 1 [0 4] 4.000000] (HELLO)
r 0.751586991 _1_ RTR  --- 0 AODV 44 [0 ffffffff 0 800] [energy 0.961902 ei 0.037 es 0.000 et 0.000 er 0.001] ------- [0:255 -1:255 1 0] [0x1 1 [0 4] 4.000000] (HELLO)
s 0.757102330 _2_ RTR  --- 0 AODV 44 [0 0 0 0] [energy 0.999332 ei 0.000 es 0.000 et 0.000 er 0.000] ------- [2:255 -1:255 1 0] [0x1 1 [2 2] 4.000000] (HELLO)
s 0.757457330 _2_ MAC  --- 0 AODV 102 [0 ffffffff 2 800] [energy 0.999332 ei 0.000 es 0.000 et 0.000 er 0.000] ------- [2:255 -1:255 1 0] [0x1 1 [2 2] 4.000000] (HELLO)
N -t 0.757458 -n 1 -e 0.961444
N -t 0.757458 -n 3 -e 0.961474
N -t 0.757458 -n 11 -e 0.961474
N -t 0.757459 -n 10 -e 0.961576
r 0.758273995 _1_ MAC  --- 0 AODV 44 [0 ffffffff 2 800] [energy 0.961444 ei 0.038 es 0.000 et 0.000 er 0.001] ------- [2:255 -1:255 1 0] [0x1 1 [2 2] 4.000000] (HELLO)
r 0.758274076 _3_ MAC  --- 0 AODV 44 [0 ffffffff 2 800] [energy 0.961474 ei 0.038 es 0.000 et 0.000 er 0.001] ------- [2:255 -1:255 1 0] [0x1 1 [2 2] 4.000000] (HELLO)
r 0.758274332 _11_ MAC  --- 0 AODV 44 [0 ffffffff 2 800] [energy 0.961474 ei 0.038 es 0.000 et 0.000 er 0.001] ------- [2:255 -1:255 1 0] [0x1 1 [2 2] 4.000000] (HELLO)
r 0.758274530 _10_ MAC  --- 0 AODV 44 [0 ffffffff 2 800] [energy 0.961576 ei 0.038 es 0.000 et 0.000 er 0.001] ------- [2:255 -1:255 1 0] [0x1 1 [2 2] 4.000000] (HELLO)
r 0.758298995 _1_ RTR  --- 0 AODV 44 [0 ffffffff 2 800] [energy 0.961444 ei 0.038 es 0.000 et 0.000 er 0.001] ------- [2:255 -1:255 1 0] [0x1 1 [2 2] 4.000000] (HELLO)
r 0.758299076 _3_ RTR  --- 0 AODV 44 [0 ffffffff 2 800] [energy 0.961474 ei 0.038 es 0.000 et 0.000 er 0.001] ------- [2:255 -1:255 1 0] [0x1 1 [2 2] 4.000000] (HELLO)
r 0.758299332 _11_ RTR  --- 0 AODV 44 [0 ffffffff 2 800] [energy 0.961474 ei 0.038 es 0.000 et 0.000 er 0.001] ------- [2:255 -1:255 1 0] [0x1 1 [2 2] 4.000000] (HELLO)
r 0.758299530 _10_ RTR  --- 0 AODV 44 [0 ffffffff 2 800] [energy 0.961576 ei 0.038 es 0.000 et 0.000 er 0.001] ------- [2:255 -1:255 1 0] [0x1 1 [2 2] 4.000000] (HELLO)
s 0.771397279 _13_ RTR  --- 0 AODV 44 [0 0 0 0] [energy 0.999084 ei 0.000 es 0.000 et 0.000 er 0.001] ------- [13:255 -1:255 1 0] [0x1 1 [13 8] 4.000000] (HELLO)
s 0.771692279 _13_ MAC  --- 0 AODV 102 [0 ffffffff d 800] [energy 0.999084 ei 0.000 es 0.000 et 0.000 er 0.001] ------- [13:255 -1:255 1 0] [0x1 1 [13 8] 4.000000] (HELLO)
N -t 0.771693 -n 14 -e 0.960640
N -t 0.771693 -n 5 -e 0.960583
N -t 0.771693 -n 7 -e 0.960631
N -t 0.771693 -n 6 -e 0.960583
N -t 0.771693 -n 12 -e 0.960631
r 0.772508946 _14_ MAC  --- 0 AODV 44 [0 ffffffff d 800] [energy 0.960640 ei 0.038 es 0.000 et 0.000 er 0.001] ------- [13:255 -1:255 1 0] [0x1 1 [13 8] 4.000000] (HELLO)
r 0.772509024 _5_ MAC  --- 0 AODV 44 [0 ffffffff d 800] [energy 0.960583 ei 0.038 es 0.000 et 0.000 er 0.001] ------- [13:255 -1:255 1 0] [0x1 1 [13 8] 4.000000] (HELLO)
r 0.772509222 _7_ MAC  --- 0 AODV 44 [0 ffffffff d 800] [energy 0.960631 ei 0.038 es 0.000 et 0.000 er 0.001] ------- [13:255 -1:255 1 0] [0x1 1 [13 8] 4.000000] (HELLO)
r 0.772509279 _6_ MAC  --- 0 AODV 44 [0 ffffffff d 800] [energy 0.960583 ei 0.038 es 0.000 et 0.000 er 0.001] ------- [13:255 -1:255 1 0] [0x1 1 [13 8] 4.000000] (HELLO)
r 0.772509481 _12_ MAC  --- 0 AODV 44 [0 ffffffff d 800] [energy 0.960631 ei 0.038 es 0.000 et 0.000 er 0.001] ------- [13:255 -1:255 1 0] [0x1 1 [13 8] 4.000000] (HELLO)
r 0.772533946 _14_ RTR  --- 0 AODV 44 [0 ffffffff d 800] [energy 0.960640 ei 0.038 es 0.000 et 0.000 er 0.001] ------- [13:255 -1:255 1 0] [0x1 1 [13 8] 4.000000] (HELLO)
r 0.772534024 _5_ RTR  --- 0 AODV 44 [0 ffffffff d 800] [energy 0.960583 ei 0.038 es 0.000 et 0.000 er 0.001] ------- [13:255 -1:255 1 0] [0x1 1 [13 8] 4.000000] (HELLO)
r 0.772534222 _7_ RTR  --- 0 AODV 44 [0 ffffffff d 800] [energy 0.960631 ei 0.038 es 0.000 et 0.000 er 0.001] ------- [13:255 -1:255 1 0] [0x1 1 [13 8] 4.000000] (HELLO)
r 0.772534279 _6_ RTR  --- 0 AODV 44 [0 ffffffff d 800] [energy 0.960583 ei 0.038 es 0.000 et 0.000 er 0.001] ------- [13:255 -1:255 1 0] [0x1 1 [13 8] 4.000000] (HELLO)
r 0.772534481 _12_ RTR  --- 0 AODV 44 [0 ffffffff d 800] [energy 0.960631 ei 0.038 es 0.000 et 0.000 er 0.001] ------- [13:255 -1:255 1 0] [0x1 1 [13 8] 4.000000] (HELLO)
s 0.794061336 _3_ RTR  --- 0 AODV 44 [0 0 0 0] [energy 0.961474 ei 0.038 es 0.000 et 0.000 er 0.001] ------- [3:255 -1:255 1 0] [0x1 1 [3 8] 4.000000] (HELLO)
s 0.794356336 _3_ MAC  --- 0 AODV 102 [0 ffffffff 3 800] [energy 0.961474 ei 0.038 es 0.000 et 0.000 er 0.001] ------- [3:255 -1:255 1 0] [0x1 1 [3 8] 4.000000] (HELLO)
N -t 0.794357 -n 11 -e 0.959507
N -t 0.794357 -n 2 -e 0.959507
N -t 0.794357 -n 4 -e 0.959486
r 0.795172809 _11_ MAC  --- 0 AODV 44 [0 ffffffff 3 800] [energy 0.959507 ei 0.040 es 0.000 et 0.000 er 0.001] ------- [3:255 -1:255 1 0] [0x1 1 [3 8] 4.000000] (HELLO)
r 0.795173081 _2_ MAC  --- 0 AODV 44 [0 ffffffff 3 800] [energy 0.959507 ei 0.040 es 0.000 et 0.000 er 0.001] ------- [3:255 -1:255 1 0] [0x1 1 [3 8] 4.000000] (HELLO)
r 0.795173081 _4_ MAC  --- 0 AODV 44 [0 ffffffff 3 800] [energy 0.959486 ei 0.040 es 0.000 et 0.000 er 0.001] ------- [3:255 -1:255 1 0] [0x1 1 [3 8] 4.000000] (HELLO)
r 0.795197809 _11_ RTR  --- 0 AODV 44 [0 ffffffff 3 800] [energy 0.959507 ei 0.040 es 0.000 et 0.000 er 0.001] ------- [3:255 -1:255 1 0] [0x1 1 [3 8] 4.000000] (HELLO)
r 0.795198081 _2_ RTR  --- 0 AODV 44 [0 ffffffff 3 800] [energy 0.959507 ei 0.040 es 0.000 et 0.000 er 0.001] ------- [3:255 -1:255 1 0] [0x1 1 [3 8] 4.000000] (HELLO)
r 0.795198081 _4_ RTR  --- 0 AODV 44 [0 ffffffff 3 800] [energy 0.959486 ei 0.040 es 0.000 et 0.000 er 0.001] ------- [3:255 -1:255 1 0] [0x1 1 [3 8] 4.000000] (HELLO)
s 0.832072703 _12_ RTR  --- 0 AODV 44 [0 0 0 0] [energy 0.960631 ei 0.038 es 0.000 et 0.000 er 0.001] ------- [12:255 -1:255 1 0] [0x1 1 [12 10] 4.000000] (HELLO)
s 0.832147703 _12_ MAC  --- 0 AODV 102 [0 ffffffff c 800] [energy 0.960631 ei 0.038 es 0.000 et 0.000 er 0.001] ------- [12:255 -1:255 1 0] [0x1 1 [12 10] 4.000000] (HELLO)
N -t 0.832148 -n 5 -e 0.957438
N -t 0.832148 -n 6 -e 0.957438
N -t 0.832149 -n 4 -e 0.957474
N -t 0.832149 -n 14 -e 0.957495
N -t 0.832149 -n 13 -e 0.957447
r 0.832964175 _5_ MAC  --- 0 AODV 44 [0 ffffffff c 800] [energy 0.957438 ei 0.041 es 0.000 et 0.000 er 0.001] ------- [12:255 -1:255 1 0] [0x1 1 [12 10] 4.000000] (HELLO)
r 0.832964370 _6_ MAC  --- 0 AODV 44 [0 ffffffff c 800] [energy 0.957438 ei 0.041 es 0.000 et 0.000 er 0.001] ------- [12:255 -1:255 1 0] [0x1 1 [12 10] 4.000000] (HELLO)
r 0.832964646 _4_ MAC  --- 0 AODV 44 [0 ffffffff c 800] [energy 0.957474 ei 0.041 es 0.000 et 0.000 er 0.001] ------- [12:255 -1:255 1 0] [0x1 1 [12 10] 4.000000] (HELLO)
r 0.832964703 _14_ MAC  --- 0 AODV 44 [0 ffffffff c 800] [energy 0.957495 ei 0.041 es 0.000 et 0.000 er 0.001] ------- [12:255 -1:255 1 0] [0x1 1 [12 10] 4.000000] (HELLO)
r 0.832964905 _13_ MAC  --- 0 AODV 44 [0 ffffffff c 800] [energy 0.957447 ei 0.041 es 0.000 et 0.000 er 0.001] ------- [12:255 -1:255 1 0] [0x1 1 [12 10] 4.000000] (HELLO)
r 0.832989175 _5_ RTR  --- 0 AODV 44 [0 ffffffff c 800] [energy 0.957438 ei 0.041 es 0.000 et 0.000 er 0.001] ------- [12:255 -1:255 1 0] [0x1 1 [12 10] 4.000000] (HELLO)
r 0.832989370 _6_ RTR  --- 0 AODV 44 [0 ffffffff c 800] [energy 0.957438 ei 0.041 es 0.000 et 0.000 er 0.001] ------- [12:255 -1:255 1 0] [0x1 1 [12 10] 4.000000] (HELLO)
r 0.832989646 _4_ RTR  --- 0 AODV 44 [0 ffffffff c 800] [energy 0.957474 ei 0.041 es 0.000 et 0.000 er 0.001] ------- [12:255 -1:255 1 0] [0x1 1 [12 10] 4.000000] (HELLO)
r 0.832989703 _14_ RTR  --- 0 AODV 44 [0 ffffffff c 800] [energy 0.957495 ei 0.041 es 0.000 et 0.000 er 0.001] ------- [12:255 -1:255 1 0] [0x1 1 [12 10] 4.000000] (HELLO)