M 0.0 nn 15 x 530 y 530 rp AODV
M 0.0 sc setdes500x500.tcl cp cbr15node.tcl seed 1.0
M 0.0 prop Propagation/TwoRayGround ant Antenna/OmniAntenna
s 0.000000000 _0_ RTR  --- 0 AODV 44 [0 0 0 0] [energy 1.000000 ei 0.000 es 0.000 et 0.000 er 0.000] ------- [0:255 -1:255 1 0] [0x1 1 [0 2] 4.000000] (HELLO)
s 0.000000000 _1_ RTR  --- 0 AODV 44 [0 0 0 0] [energy 1.000000 ei 0.000 es 0.000 et 0.000 er 0.000] ------- [1:255 -1:255 1 0] [0x1 1 [1 2] 4.000000] (HELLO)
s 0.000000000 _2_ RTR  --- 0 AODV 44 [0 0 0 0] [energy 1.000000 ei 0.000 es 0.000 et 0.000 er 0.000] ------- [2:255 -1:255 1 0] [0x1 1 [2 2] 4.000000] (HELLO)
s 0.000000000 _3_ RTR  --- 0 AODV 44 [0 0 0 0] [energy 1.000000 ei 0.000 es 0.000 et 0.000 er 0.000] ------- [3:255 -1:255 1 0] [0x1 1 [3 2] 4.000000] (HELLO)
s 0.000000000 _4_ RTR  --- 0 AODV 44 [0 0 0 0] [energy 1.000000 ei 0.000 es 0.000 et 0.000 er 0.000] ------- [4:255 -1:255 1 0] [0x1 1 [4 2] 4.000000] (HELLO)
s 0.000000000 _5_ RTR  --- 0 AODV 44 [0 0 0 0] [energy 1.000000 ei 0.000 es 0.000 et 0.000 er 0.000] ------- [5:255 -1:255 1 0] [0x1 1 [5 2] 4.000000] (HELLO)
s 0.000000000 _6_ RTR  --- 0 AODV 44 [0 0 0 0] [energy 1.000000 ei 0.000 es 0.000 et 0.000 er 0.000] ------- [6:255 -1:255 1 0] [0x1 1 [6 2] 4.000000] (HELLO)
s 0.000000000 _7_ RTR  --- 0 AODV 44 [0 0 0 0] [energy 1.000000 ei 0.000 es 0.000 et 0.000 er 0.000] ------- [7:255 -1:255 1 0] [0x1 1 [7 2] 4.000000] (HELLO)
s 0.000000000 _8_ RTR  --- 0 AODV 44 [0 0 0 0] [energy 1.000000 ei 0.000 es 0.000 et 0.000 er 0.000] ------- [8:255 -1:255 1 0] [0x1 1 [8 2] 4.000000] (HELLO)
s 0.000000000 _9_ RTR  --- 0 AODV 44 [0 0 0 0] [energy 1.000000 ei 0.000 es 0.000 et 0.000 er 0.000] ------- [9:255 -1:255 1 0] [0x1 1 [9 2] 4.000000] (HELLO)
s 0.000000000 _10_ RTR  --- 0 AODV 44 [0 0 0 0] [energy 1.000000 ei 0.000 es 0.000 et 0.000 er 0.000] ------- [10:255 -1:255 1 0] [0x1 1 [10 2] 4.000000] (HELLO)
s 0.000000000 _11_ RTR  --- 0 AODV 44 [0 0 0 0] [energy 1.000000 ei 0.000 es 0.000 et 0.000 er 0.000] ------- [11:255 -1:255 1 0] [0x1 1 [11 2] 4.000000] (HELLO)
s 0.000000000 _12_ RTR  --- 0 AODV 44 [0 0 0 0] [energy 1.000000 ei 0.000 es 0.000 et 0.000 er 0.000] ------- [12:255 -1:255 1 0] [0x1 1 [12 2] 4.000000] (HELLO)
s 0.000000000 _13_ RTR  --- 0 AODV 44 [0 0 0 0] [energy 1.000000 ei 0.000 es 0.000 et 0.000 er 0.000] ------- [13:255 -1:255 1 0] [0x1 1 [13 2] 4.000000] (HELLO)
s 0.000000000 _14_ RTR  --- 0 AODV 44 [0 0 0 0] [energy 1.000000 ei 0.000 es 0.000 et 0.000 er 0.000] ------- [14:255 -1:255 1 0] [0x1 1 [14 2] 4.000000] (HELLO)
s 0.000095000 _8_ MAC  --- 0 AODV 102 [0 ffffffff 8 800] [energy 1.000000 ei 0.000 es 0.000 et 0.000 er 0.000] ------- [8:255 -1:255 1 0] [0x1 1 [8 2] 4.000000] (HELLO)
N -t 0.000095 -n 9 -e 0.999832
N -t 0.000096 -n 7 -e 0.999832
N -t 0.000096 -n 10 -e 0.999832
s 0.000235000 _2_ MAC  --- 0 AODV 102 [0 ffffffff 2 800] [energy 1.000000 ei 0.000 es 0.000 et 0.000 er 0.000] ------- [2:255 -1:255 1 0] [0x1 1 [2 2] 4.000000] (HELLO)
N -t 0.000236 -n 1 -e 0.999825
N -t 0.000236 -n 3 -e 0.999825
N -t 0.000236 -n 11 -e 0.999825
N -t 0.000236 -n 10 -e 0.999804
D 0.000236200 _10_ MAC  COL 0 AODV 102 [0 ffffffff 8 800] [energy 0.999804 ei 0.000 es 0.000 et 0.000 er 0.000] ------- [8:255 -1:255 1 0] [0x1 1 [8 2] 4.000000] (HELLO)
s 0.000275000 _6_ MAC  --- 0 AODV 102 [0 ffffffff 6 800] [energy 1.000000 ei 0.000 es 0.000 et 0.000 er 0.000] ------- [6:255 -1:255 1 0] [0x1 1 [6 2] 4.000000] (HELLO)
N -t 0.000275 -n 5 -e 0.999823
N -t 0.000276 -n 4 -e 0.999823
N -t 0.000276 -n 12 -e 0.999823
N -t 0.000276 -n 7 -e 0.999796
D 0.000275745 _7_ MAC  COL 0 AODV 102 [0 ffffffff 8 800] [energy 0.999796 ei 0.000 es 0.000 et 0.000 er 0.000] ------- [8:255 -1:255 1 0] [0x1 1 [8 2] 4.000000] (HELLO)
N -t 0.000276 -n 13 -e 0.999823
N -t 0.000276 -n 14 -e 0.999823
s 0.000435000 _0_ MAC  --- 0 AODV 102 [0 ffffffff 0 800] [energy 1.000000 ei 0.000 es 0.000 et 0.000 er 0.000] ------- [0:255 -1:255 1 0] [0x1 1 [0 2] 4.000000] (HELLO)
N -t 0.000436 -n 1 -e 0.999785
r 0.000911333 _9_ MAC  --- 0 AODV 44 [0 ffffffff 8 800] [energy 0.999832 ei 0.000 es 0.000 et 0.000 er 0.000] ------- [8:255 -1:255 1 0] [0x1 1 [8 2] 4.000000] (HELLO)
r 0.000936333 _9_ RTR  --- 0 AODV 44 [0 ffffffff 8 800] [energy 0.999832 ei 0.000 es 0.000 et 0.000 er 0.000] ------- [8:255 -1:255 1 0] [0x1 1 [8 2] 4.000000] (HELLO)
r 0.001051665 _1_ MAC  --- 0 AODV 44 [0 ffffffff 2 800] [energy 0.999785 ei 0.000 es 0.000 et 0.000 er 0.000] ------- [2:255 -1:255 1 0] [0x1 1 [2 2] 4.000000] (HELLO)
r 0.001051745 _3_ MAC  --- 0 AODV 44 [0 ffffffff 2 800] [energy 0.999825 ei 0.000 es 0.000 et 0.000 er 0.000] ------- [2:255 -1:255 1 0] [0x1 1 [2 2] 4.000000] (HELLO)
r 0.001052002 _11_ MAC  --- 0 AODV 44 [0 ffffffff 2 800] [energy 0.999825 ei 0.000 es 0.000 et 0.000 er 0.000] ------- [2:255 -1:255 1 0] [0x1 1 [2 2] 4.000000] (HELLO)
D 0.001052200 _10_ MAC  COL 0 AODV 102 [0 ffffffff 2 800] [energy 0.999804 ei 0.000 es 0.000 et 0.000 er 0.000] ------- [2:255 -1:255 1 0] [0x1 1 [2 2] 4.000000] (HELLO)
r 0.001076665 _1_ RTR  --- 0 AODV 44 [0 ffffffff 2 800] [energy 0.999785 ei 0.000 es 0.000 et 0.000 er 0.000] ------- [2:255 -1:255 1 0] [0x1 1 [2 2] 4.000000] (HELLO)
r 0.001076745 _3_ RTR  --- 0 AODV 44 [0 ffffffff 2 800] [energy 0.999825 ei 0.000 es 0.000 et 0.000 er 0.000] ------- [2:255 -1:255 1 0] [0x1 1 [2 2] 4.000000] (HELLO)
r 0.001077002 _11_ RTR  --- 0 AODV 44 [0 ffffffff 2 800] [energy 0.999825 ei 0.000 es 0.000 et 0.000 er 0.000] ------- [2:255 -1:255 1 0] [0x1 1 [2 2] 4.000000] (HELLO)
r 0.001091471 _5_ MAC  --- 0 AODV 44 [0 ffffffff 6 800] [energy 0.999823 ei 0.000 es 0.000 et 0.000 er 0.000] ------- [6:255 -1:255 1 0] [0x1 1 [6 2] 4.000000] (HELLO)
r 0.001091667 _4_ MAC  --- 0 AODV 44 [0 ffffffff 6 800] [energy 0.999823 ei 0.000 es 0.000 et 0.000 er 0.000] ------- [6:255 -1:255 1 0] [0x1 1 [6 2] 4.000000] (HELLO)
r 0.001091667 _12_ MAC  --- 0 AODV 44 [0 ffffffff 6 800] [energy 0.999823 ei 0.000 es 0.000 et 0.000 er 0.000] ------- [6:255 -1:255 1 0] [0x1 1 [6 2] 4.000000] (HELLO)
D 0.001091745 _7_ MAC  COL 0 AODV 102 [0 ffffffff 6 800] [energy 0.999796 ei 0.000 es 0.000 et 0.000 er 0.000] ------- [6:255 -1:255 1 0] [0x1 1 [6 2] 4.000000] (HELLO)
r 0.001092000 _13_ MAC  --- 0 AODV 44 [0 ffffffff 6 800] [energy 0.999823 ei 0.000 es 0.000 et 0.000 er 0.000] ------- [6:255 -1:255 1 0] [0x1 1 [6 2] 4.000000] (HELLO)
r 0.001092202 _14_ MAC  --- 0 AODV 44 [0 ffffffff 6 800] [energy 0.999823 ei 0.000 es 0.000 et 0.000 er 0.000] ------- [6:255 -1:255 1 0] [0x1 1 [6 2] 4.000000] (HELLO)
r 0.001116471 _5_ RTR  --- 0 AODV 44 [0 ffffffff 6 800] [energy 0.999823 ei 0.000 es 0.000 et 0.000 er 0.000] ------- [6:255 -1:255 1 0] [0x1 1 [6 2] 4.000000] (HELLO)
r 0.001116667 _4_ RTR  --- 0 AODV 44 [0 ffffffff 6 800] [energy 0.999823 ei 0.000 es 0.000 et 0.000 er 0.000] ------- [6:255 -1:255 1 0] [0x1 1 [6 2] 4.000000] (HELLO)
r 0.001116667 _12_ RTR  --- 0 AODV 44 [0 ffffffff 6 800] [energy 0.999823 ei 0.000 es 0.000 et 0.000 er 0.000] ------- [6:255 -1:255 1 0] [0x1 1 [6 2] 4.000000] (HELLO)
r 0.001117000 _13_ RTR  --- 0 AODV 44 [0 ffffffff 6 800] [energy 0.999823 ei 0.000 es 0.000 et 0.000 er 0.000] ------- [6:255 -1:255 1 0] [0x1 1 [6 2] 4.000000] (HELLO)
r 0.001117202 _14_ RTR  --- 0 AODV 44 [0 ffffffff 6 800] [energy 0.999823 ei 0.000 es 0.000 et 0.000 er 0.000] ------- [6:255 -1:255 1 0] [0x1 1 [6 2] 4.000000] (HELLO)
s 0.001122002 _11_ MAC  --- 0 AODV 102 [0 ffffffff b 800] [energy 0.999825 ei 0.000 es 0.000 et 0.000 er 0.000] ------- [11:255 -1:255 1 0] [0x1 1 [11 2] 4.000000] (HELLO)
N -t 0.001122 -n 3 -e 0.999658
N -t 0.001123 -n 2 -e 0.999658
N -t 0.001123 -n 4 -e 0.999658
s 0.001181333 _9_ MAC  --- 0 AODV 102 [0 ffffffff 9 800] [energy 0.999832 ei 0.000 es 0.000 et 0.000 er 0.000] ------- [9:255 -1:255 1 0] [0x1 1 [9 2] 4.000000] (HELLO)
N -t 0.001182 -n 8 -e 0.999655
N -t 0.001182 -n 7 -e 0.999628
s 0.001261471 _5_ MAC  --- 0 AODV 102 [0 ffffffff 5 800] [energy 0.999823 ei 0.000 es 0.000 et 0.000 er 0.000] ------- [5:255 -1:255 1 0] [0x1 1 [5 2] 4.000000] (HELLO)
N -t 0.001262 -n 12 -e 0.999651
N -t 0.001262 -n 6 -e 0.999651
N -t 0.001262 -n 13 -e 0.999651
N -t 0.001262 -n 14 -e 0.999651
N -t 0.001262 -n 7 -e 0.999612
D 0.001262471 _7_ MAC  COL 0 AODV 102 [0 ffffffff 9 800] [energy 0.999612 ei 0.000 es 0.000 et 0.000 er 0.000] ------- [9:255 -1:255 1 0] [0x1 1 [9 2] 4.000000] (HELLO)
N -t 0.001263 -n 4 -e 0.999630
D 0.001262525 _4_ MAC  COL 0 AODV 102 [0 ffffffff b 800] [energy 0.999630 ei 0.000 es 0.000 et 0.000 er 0.000] ------- [11:255 -1:255 1 0] [0x1 1 [11 2] 4.000000] (HELLO)
s 0.001746202 _1_ MAC  --- 0 AODV 102 [0 ffffffff 1 800] [energy 0.999785 ei 0.000 es 0.000 et 0.000 er 0.000] ------- [1:255 -1:255 1 0] [0x1 1 [1 2] 4.000000] (HELLO)
N -t 0.001747 -n 2 -e 0.999533
D 0.001746867 _2_ MAC  COL 0 AODV 102 [0 ffffffff b 800] [energy 0.999533 ei 0.000 es 0.000 et 0.000 er 0.000] ------- [11:255 -1:255 1 0] [0x1 1 [11 2] 4.000000] (HELLO)
N -t 0.001747 -n 10 -e 0.999606
N -t 0.001747 -n 0 -e 0.999627
r 0.001938475 _3_ MAC  --- 0 AODV 44 [0 ffffffff b 800] [energy 0.999658 ei 0.000 es 0.000 et 0.000 er 0.000] ------- [11:255 -1:255 1 0] [0x1 1 [11 2] 4.000000] (HELLO)
r 0.001963475 _3_ RTR  --- 0 AODV 44 [0 ffffffff b 800] [energy 0.999658 ei 0.000 es 0.000 et 0.000 er 0.000] ------- [11:255 -1:255 1 0] [0x1 1 [11 2] 4.000000] (HELLO)
r 0.001997667 _8_ MAC  --- 0 AODV 44 [0 ffffffff 9 800] [energy 0.999655 ei 0.000 es 0.000 et 0.000 er 0.000] ------- [9:255 -1:255 1 0] [0x1 1 [9 2] 4.000000] (HELLO)
r 0.002022667 _8_ RTR  --- 0 AODV 44 [0 ffffffff 9 800] [energy 0.999655 ei 0.000 es 0.000 et 0.000 er 0.000] ------- [9:255 -1:255 1 0] [0x1 1 [9 2] 4.000000] (HELLO)
r 0.002077943 _12_ MAC  --- 0 AODV 44 [0 ffffffff 5 800] [energy 0.999651 ei 0.000 es 0.000 et 0.000 er 0.000] ------- [5:255 -1:255 1 0] [0x1 1 [5 2] 4.000000] (HELLO)
r 0.002077943 _6_ MAC  --- 0 AODV 44 [0 ffffffff 5 800] [energy 0.999651 ei 0.000 es 0.000 et 0.000 er 0.000] ------- [5:255 -1:255 1 0] [0x1 1 [5 2] 4.000000] (HELLO)
r 0.002078217 _13_ MAC  --- 0 AODV 44 [0 ffffffff 5 800] [energy 0.999651 ei 0.000 es 0.000 et 0.000 er 0.000] ------- [5:255 -1:255 1 0] [0x1 1 [5 2] 4.000000] (HELLO)
r 0.002078217 _14_ MAC  --- 0 AODV 44 [0 ffffffff 5 800] [energy 0.999651 ei 0.000 es 0.000 et 0.000 er 0.000] ------- [5:255 -1:255 1 0] [0x1 1 [5 2] 4.000000] (HELLO)
D 0.002078471 _7_ MAC  COL 0 AODV 102 [0 ffffffff 5 800] [energy 0.999612 ei 0.000 es 0.000 et 0.000 er 0.000] ------- [5:255 -1:255 1 0] [0x1 1 [5 2] 4.000000] (HELLO)
D 0.002078525 _4_ MAC  COL 0 AODV 102 [0 ffffffff 5 800] [energy 0.999630 ei 0.000 es 0.000 et 0.000 er 0.000] ------- [5:255 -1:255 1 0] [0x1 1 [5 2] 4.000000] (HELLO)
r 0.002102943 _12_ RTR  --- 0 AODV 44 [0 ffffffff 5 800] [energy 0.999651 ei 0.000 es 0.000 et 0.000 er 0.000] ------- [5:255 -1:255 1 0] [0x1 1 [5 2] 4.000000] (HELLO)
r 0.002102943 _6_ RTR  --- 0 AODV 44 [0 ffffffff 5 800] [energy 0.999651 ei 0.000 es 0.000 et 0.000 er 0.000] ------- [5:255 -1:255 1 0] [0x1 1 [5 2] 4.000000] (HELLO)
r 0.002103217 _13_ RTR  --- 0 AODV 44 [0 ffffffff 5 800] [energy 0.999651 ei 0.000 es 0.000 et 0.000 er 0.000] ------- [5:255 -1:255 1 0] [0x1 1 [5 2] 4.000000] (HELLO)
r 0.002103217 _14_ RTR  --- 0 AODV 44 [0 ffffffff 5 800] [energy 0.999651 ei 0.000 es 0.000 et 0.000 er 0.000] ------- [5:255 -1:255 1 0] [0x1 1 [5 2] 4.000000] (HELLO)
s 0.002208217 _13_ MAC  --- 0 AODV 102 [0 ffffffff d 800] [energy 0.999651 ei 0.000 es 0.000 et 0.000 er 0.000] ------- [13:255 -1:255 1 0] [0x1 1 [13 2] 4.000000] (HELLO)
N -t 0.002209 -n 14 -e 0.999482
N -t 0.002209 -n 5 -e 0.999482
N -t 0.002209 -n 7 -e 0.999443
N -t 0.002209 -n 6 -e 0.999482
N -t 0.002209 -n 12 -e 0.999482
s 0.002288475 _3_ MAC  --- 0 AODV 102 [0 ffffffff 3 800] [energy 0.999658 ei 0.000 es 0.000 et 0.000 er 0.000] ------- [3:255 -1:255 1 0] [0x1 1 [3 2] 4.000000] (HELLO)
N -t 0.002289 -n 11 -e 0.999478
N -t 0.002289 -n 2 -e 0.999425
D 0.002289221 _2_ MAC  COL 0 AODV 102 [0 ffffffff 1 800] [energy 0.999425 ei 0.000 es 0.000 et 0.000 er 0.000] ------- [1:255 -1:255 1 0] [0x1 1 [1 2] 4.000000] (HELLO)
N -t 0.002289 -n 4 -e 0.999457
r 0.002562947 _10_ MAC  --- 0 AODV 44 [0 ffffffff 1 800] [energy 0.999606 ei 0.000 es 0.000 et 0.000 er 0.000] ------- [1:255 -1:255 1 0] [0x1 1 [1 2] 4.000000] (HELLO)
r 0.002563404 _0_ MAC  --- 0 AODV 44 [0 ffffffff 1 800] [energy 0.999627 ei 0.000 es 0.000 et 0.000 er 0.000] ------- [1:255 -1:255 1 0] [0x1 1 [1 2] 4.000000] (HELLO)
r 0.002587947 _10_ RTR  --- 0 AODV 44 [0 ffffffff 1 800] [energy 0.999606 ei 0.000 es 0.000 et 0.000 er 0.000] ------- [1:255 -1:255 1 0] [0x1 1 [1 2] 4.000000] (HELLO)
r 0.002588404 _0_ RTR  --- 0 AODV 44 [0 ffffffff 1 800] [energy 0.999627 ei 0.000 es 0.000 et 0.000 er 0.000] ------- [1:255 -1:255 1 0] [0x1 1 [1 2] 4.000000] (HELLO)
s 0.002752947 _10_ MAC  --- 0 AODV 102 [0 ffffffff a 800] [energy 0.999606 ei 0.000 es 0.000 et 0.000 er 0.000] ------- [10:255 -1:255 1 0] [0x1 1 [10 2] 4.000000] (HELLO)
N -t 0.002754 -n 1 -e 0.999424
N -t 0.002754 -n 2 -e 0.999332
D 0.002754147 _2_ MAC  COL 0 AODV 102 [0 ffffffff 3 800] [energy 0.999332 ei 0.000 es 0.000 et 0.000 er 0.000] ------- [3:255 -1:255 1 0] [0x1 1 [3 2] 4.000000] (HELLO)
N -t 0.002754 -n 8 -e 0.999454
r 0.003024883 _14_ MAC  --- 0 AODV 44 [0 ffffffff d 800] [energy 0.999482 ei 0.000 es 0.000 et 0.000 er 0.000] ------- [13:255 -1:255 1 0] [0x1 1 [13 2] 4.000000] (HELLO)
r 0.003024962 _5_ MAC  --- 0 AODV 44 [0 ffffffff d 800] [energy 0.999482 ei 0.000 es 0.000 et 0.000 er 0.000] ------- [13:255 -1:255 1 0] [0x1 1 [13 2] 4.000000] (HELLO)
r 0.003025160 _7_ MAC  --- 0 AODV 44 [0 ffffffff d 800] [energy 0.999443 ei 0.000 es 0.000 et 0.000 er 0.001] ------- [13:255 -1:255 1 0] [0x1 1 [13 2] 4.000000] (HELLO)
r 0.003025217 _6_ MAC  --- 0 AODV 44 [0 ffffffff d 800] [energy 0.999482 ei 0.000 es 0.000 et 0.000 er 0.000] ------- [13:255 -1:255 1 0] [0x1 1 [13 2] 4.000000] (HELLO)
r 0.003025419 _12_ MAC  --- 0 AODV 44 [0 ffffffff d 800] [energy 0.999482 ei 0.000 es 0.000 et 0.000 er 0.000] ------- [13:255 -1:255 1 0] [0x1 1 [13 2] 4.000000] (HELLO)
r 0.003049883 _14_ RTR  --- 0 AODV 44 [0 ffffffff d 800] [energy 0.999482 ei 0.000 es 0.000 et 0.000 er 0.000] ------- [13:255 -1:255 1 0] [0x1 1 [13 2] 4.000000] (HELLO)
r 0.003049962 _5_ RTR  --- 0 AODV 44 [0 ffffffff d 800] [energy 0.999482 ei 0.000 es 0.000 et 0.000 er 0.000] ------- [13:255 -1:255 1 0] [0x1 1 [13 2] 4.000000] (HELLO)
r 0.003050160 _7_ RTR  --- 0 AODV 44 [0 ffffffff d 800] [energy 0.999443 ei 0.000 es 0.000 et 0.000 er 0.001] ------- [13:255 -1:255 1 0] [0x1 1 [13 2] 4.000000] (HELLO)
r 0.003050217 _6_ RTR  --- 0 AODV 44 [0 ffffffff d 800] [energy 0.999482 ei 0.000 es 0.000 et 0.000 er 0.000] ------- [13:255 -1:255 1 0] [0x1 1 [13 2] 4.000000] (HELLO)
r 0.003050419 _12_ RTR  --- 0 AODV 44 [0 ffffffff d 800] [energy 0.999482 ei 0.000 es 0.000 et 0.000 er 0.000] ------- [13:255 -1:255 1 0] [0x1 1 [13 2] 4.000000] (HELLO)
r 0.003104949 _11_ MAC  --- 0 AODV 44 [0 ffffffff 3 800] [energy 0.999478 ei 0.000 es 0.000 et 0.000 er 0.000] ------- [3:255 -1:255 1 0] [0x1 1 [3 2] 4.000000] (HELLO)
r 0.003105221 _4_ MAC  --- 0 AODV 44 [0 ffffffff 3 800] [energy 0.999457 ei 0.000 es 0.000 et 0.000 er 0.001] ------- [3:255 -1:255 1 0] [0x1 1 [3 2] 4.000000] (HELLO)
r 0.003129949 _11_ RTR  --- 0 AODV 44 [0 ffffffff 3 800] [energy 0.999478 ei 0.000 es 0.000 et 0.000 er 0.000] ------- [3:255 -1:255 1 0] [0x1 1 [3 2] 4.000000] (HELLO)
r 0.003130221 _4_ RTR  --- 0 AODV 44 [0 ffffffff 3 800] [energy 0.999457 ei 0.000 es 0.000 et 0.000 er 0.001] ------- [3:255 -1:255 1 0] [0x1 1 [3 2] 4.000000] (HELLO)
s 0.003214883 _14_ MAC  --- 0 AODV 102 [0 ffffffff e 800] [energy 0.999482 ei 0.000 es 0.000 et 0.000 er 0.000] ------- [14:255 -1:255 1 0] [0x1 1 [14 2] 4.000000] (HELLO)
N -t 0.003216 -n 13 -e 0.999309
N -t 0.003216 -n 5 -e 0.999309
N -t 0.003216 -n 12 -e 0.999309
N -t 0.003216 -n 6 -e 0.999309
s 0.003275160 _7_ MAC  --- 0 AODV 102 [0 ffffffff 7 800] [energy 0.999443 ei 0.000 es 0.000 et 0.000 er 0.001] ------- [7:255 -1:255 1 0] [0x1 1 [7 2] 4.000000] (HELLO)
N -t 0.003276 -n 6 -e 0.999297
D 0.003275905 _6_ MAC  COL 0 AODV 102 [0 ffffffff e 800] [energy 0.999297 ei 0.000 es 0.000 et 0.000 er 0.001] ------- [14:255 -1:255 1 0] [0x1 1 [14 2] 4.000000] (HELLO)
N -t 0.003276 -n 13 -e 0.999297
D 0.003276102 _13_ MAC  COL 0 AODV 102 [0 ffffffff e 800] [energy 0.999297 ei 0.000 es 0.000 et 0.000 er 0.001] ------- [14:255 -1:255 1 0] [0x1 1 [14 2] 4.000000] (HELLO)
N -t 0.003276 -n 9 -e 0.999428
N -t 0.003276 -n 5 -e 0.999297
D 0.003276160 _5_ MAC  COL 0 AODV 102 [0 ffffffff e 800] [energy 0.999297 ei 0.000 es 0.000 et 0.000 er 0.001] ------- [14:255 -1:255 1 0] [0x1 1 [14 2] 4.000000] (HELLO)
N -t 0.003276 -n 4 -e 0.999285
N -t 0.003276 -n 8 -e 0.999350
D 0.003276491 _8_ MAC  COL 0 AODV 102 [0 ffffffff a 800] [energy 0.999350 ei 0.000 es 0.000 et 0.000 er 0.000] ------- [10:255 -1:255 1 0] [0x1 1 [10 2] 4.000000] (HELLO)
r 0.003569693 _1_ MAC  --- 0 AODV 44 [0 ffffffff a 800] [energy 0.999424 ei 0.000 es 0.000 et 0.000 er 0.000] ------- [10:255 -1:255 1 0] [0x1 1 [10 2] 4.000000] (HELLO)
D 0.003570147 _2_ MAC  COL 0 AODV 102 [0 ffffffff a 800] [energy 0.999332 ei 0.000 es 0.000 et 0.000 er 0.000] ------- [10:255 -1:255 1 0] [0x1 1 [10 2] 4.000000] (HELLO)
r 0.003594693 _1_ RTR  --- 0 AODV 44 [0 ffffffff a 800] [energy 0.999424 ei 0.000 es 0.000 et 0.000 er 0.000] ------- [10:255 -1:255 1 0] [0x1 1 [10 2] 4.000000] (HELLO)
r 0.004031883 _12_ MAC  --- 0 AODV 44 [0 ffffffff e 800] [energy 0.999309 ei 0.000 es 0.000 et 0.000 er 0.001] ------- [14:255 -1:255 1 0] [0x1 1 [14 2] 4.000000] (HELLO)
r 0.004056883 _12_ RTR  --- 0 AODV 44 [0 ffffffff e 800] [energy 0.999309 ei 0.000 es 0.000 et 0.000 er 0.001] ------- [14:255 -1:255 1 0] [0x1 1 [14 2] 4.000000] (HELLO)
D 0.004091905 _6_ MAC  COL 0 AODV 102 [0 ffffffff 7 800] [energy 0.999297 ei 0.000 es 0.000 et 0.000 er 0.001] ------- [7:255 -1:255 1 0] [0x1 1 [7 2] 4.000000] (HELLO)
D 0.004092102 _13_ MAC  COL 0 AODV 102 [0 ffffffff 7 800] [energy 0.999297 ei 0.000 es 0.000 et 0.000 er 0.001] ------- [7:255 -1:255 1 0] [0x1 1 [7 2] 4.000000] (HELLO)
r 0.004092158 _9_ MAC  --- 0 AODV 44 [0 ffffffff 7 800] [energy 0.999428 ei 0.000 es 0.000 et 0.000 er 0.000] ------- [7:255 -1:255 1 0] [0x1 1 [7 2] 4.000000] (HELLO)
D 0.004092160 _5_ MAC  COL 0 AODV 102 [0 ffffffff 7 800] [energy 0.999297 ei 0.000 es 0.000 et 0.000 er 0.001] ------- [7:255 -1:255 1 0] [0x1 1 [7 2] 4.000000] (HELLO)
r 0.004092361 _4_ MAC  --- 0 AODV 44 [0 ffffffff 7 800] [energy 0.999285 ei 0.000 es 0.000 et 0.000 er 0.001] ------- [7:255 -1:255 1 0] [0x1 1 [7 2] 4.000000] (HELLO)
D 0.004092491 _8_ MAC  COL 0 AODV 102 [0 ffffffff 7 800] [energy 0.999350 ei 0.000 es 0.000 et 0.000 er 0.000] ------- [7:255 -1:255 1 0] [0x1 1 [7 2] 4.000000] (HELLO)
r 0.004117158 _9_ RTR  --- 0 AODV 44 [0 ffffffff 7 800] [energy 0.999428 ei 0.000 es 0.000 et 0.000 er 0.000] ------- [7:255 -1:255 1 0] [0x1 1 [7 2] 4.000000] (HELLO)
r 0.004117361 _4_ RTR  --- 0 AODV 44 [0 ffffffff 7 800] [energy 0.999285 ei 0.000 es 0.000 et 0.000 er 0.001] ------- [7:255 -1:255 1 0] [0x1 1 [7 2] 4.000000] (HELLO)
s 0.004121883 _12_ MAC  --- 0 AODV 102 [0 ffffffff c 800] [energy 0.999309 ei 0.000 es 0.000 et 0.000 er 0.001] ------- [12:255 -1:255 1 0] [0x1 1 [12 2] 4.000000] (HELLO)
N -t 0.004122 -n 5 -e 0.999132
N -t 0.004123 -n 6 -e 0.999132
N -t 0.004123 -n 4 -e 0.999120
N -t 0.004123 -n 14 -e 0.999141
N -t 0.004123 -n 13 -e 0.999132
r 0.004938355 _5_ MAC  --- 0 AODV 44 [0 ffffffff c 800] [energy 0.999132 ei 0.000 es 0.000 et 0.000 er 0.001] ------- [12:255 -1:255 1 0] [0x1 1 [12 2] 4.000000] (HELLO)
r 0.004938550 _6_ MAC  --- 0 AODV 44 [0 ffffffff c 800] [energy 0.999132 ei 0.000 es 0.000 et 0.000 er 0.001] ------- [12:255 -1:255 1 0] [0x1 1 [12 2] 4.000000] (HELLO)
r 0.004938826 _4_ MAC  --- 0 AODV 44 [0 ffffffff c 800] [energy 0.999120 ei 0.000 es 0.000 et 0.000 er 0.001] ------- [12:255 -1:255 1 0] [0x1 1 [12 2] 4.000000] (HELLO)
r 0.004938883 _14_ MAC  --- 0 AODV 44 [0 ffffffff c 800] [energy 0.999141 ei 0.000 es 0.000 et 0.000 er 0.001] ------- [12:255 -1:255 1 0] [0x1 1 [12 2] 4.000000] (HELLO)
r 0.004939085 _13_ MAC  --- 0 AODV 44 [0 ffffffff c 800] [energy 0.999132 ei 0.000 es 0.000 et 0.000 er 0.001] ------- [12:255 -1:255 1 0] [0x1 1 [12 2] 4.000000] (HELLO)
r 0.004963355 _5_ RTR  --- 0 AODV 44 [0 ffffffff c 800] [energy 0.999132 ei 0.000 es 0.000 et 0.000 er 0.001] ------- [12:255 -1:255 1 0] [0x1 1 [12 2] 4.000000] (HELLO)
r 0.004963550 _6_ RTR  --- 0 AODV 44 [0 ffffffff c 800] [energy 0.999132 ei 0.000 es 0.000 et 0.000 er 0.001] ------- [12:255 -1:255 1 0] [0x1 1 [12 2] 4.000000] (HELLO)
r 0.004963826 _4_ RTR  --- 0 AODV 44 [0 ffffffff c 800] [energy 0.999120 ei 0.000 es 0.000 et 0.000 er 0.001] ------- [12:255 -1:255 1 0] [0x1 1 [12 2] 4.000000] (HELLO)
r 0.004963883 _14_ RTR  --- 0 AODV 44 [0 ffffffff c 800] [energy 0.999141 ei 0.000 es 0.000 et 0.000 er 0.001] ------- [12:255 -1:255 1 0] [0x1 1 [12 2] 4.000000] (HELLO)
r 0.004964085 _13_ RTR  --- 0 AODV 44 [0 ffffffff c 800] [energy 0.999132 ei 0.000 es 0.000 et 0.000 er 0.001] ------- [12:255 -1:255 1 0] [0x1 1 [12 2] 4.000000] (HELLO)
s 0.005008826 _4_ MAC  --- 0 AODV 102 [0 ffffffff 4 800] [energy 0.999120 ei 0.000 es 0.000 et 0.000 er 0.001] ------- [4:255 -1:255 1 0] [0x1 1 [4 2] 4.000000] (HELLO)
N -t 0.005009 -n 6 -e 0.998965
N -t 0.005010 -n 3 -e 0.999219
N -t 0.005010 -n 12 -e 0.998974
N -t 0.005010 -n 11 -e 0.999219
N -t 0.005010 -n 5 -e 0.998965
N -t 0.005010 -n 7 -e 0.999058
r 0.005825493 _6_ MAC  --- 0 AODV 44 [0 ffffffff 4 800] [energy 0.998965 ei 0.000 es 0.000 et 0.000 er 0.001] ------- [4:255 -1:255 1 0] [0x1 1 [4 2] 4.000000] (HELLO)
r 0.005825572 _3_ MAC  --- 0 AODV 44 [0 ffffffff 4 800] [energy 0.999219 ei 0.000 es 0.000 et 0.000 er 0.000] ------- [4:255 -1:255 1 0] [0x1 1 [4 2] 4.000000] (HELLO)
r 0.005825769 _12_ MAC  --- 0 AODV 44 [0 ffffffff 4 800] [energy 0.998974 ei 0.000 es 0.000 et 0.000 er 0.001] ------- [4:255 -1:255 1 0] [0x1 1 [4 2] 4.000000] (HELLO)
r 0.005825828 _11_ MAC  --- 0 AODV 44 [0 ffffffff 4 800] [energy 0.999219 ei 0.000 es 0.000 et 0.000 er 0.000] ------- [4:255 -1:255 1 0] [0x1 1 [4 2] 4.000000] (HELLO)
r 0.005825880 _5_ MAC  --- 0 AODV 44 [0 ffffffff 4 800] [energy 0.998965 ei 0.000 es 0.000 et 0.000 er 0.001] ------- [4:255 -1:255 1 0] [0x1 1 [4 2] 4.000000] (HELLO)
r 0.005826028 _7_ MAC  --- 0 AODV 44 [0 ffffffff 4 800] [energy 0.999058 ei 0.000 es 0.000 et 0.000 er 0.001] ------- [4:255 -1:255 1 0] [0x1 1 [4 2] 4.000000] (HELLO)
r 0.005850493 _6_ RTR  --- 0 AODV 44 [0 ffffffff 4 800] [energy 0.998965 ei 0.000 es 0.000 et 0.000 er 0.001] ------- [4:255 -1:255 1 0] [0x1 1 [4 2] 4.000000] (HELLO)
r 0.005850572 _3_ RTR  --- 0 AODV 44 [0 ffffffff 4 800] [energy 0.999219 ei 0.000 es 0.000 et 0.000 er 0.000] ------- [4:255 -1:255 1 0] [0x1 1 [4 2] 4.000000] (HELLO)
r 0.005850769 _12_ RTR  --- 0 AODV 44 [0 ffffffff 4 800] [energy 0.998974 ei 0.000 es 0.000 et 0.000 er 0.001] ------- [4:255 -1:255 1 0] [0x1 1 [4 2] 4.000000] (HELLO)
r 0.005850828 _11_ RTR  --- 0 AODV 44 [0 ffffffff 4 800] [energy 0.999219 ei 0.000 es 0.000 et 0.000 er 0.000] ------- [4:255 -1:255 1 0] [0x1 1 [4 2] 4.000000] (HELLO)
r 0.005850880 _5_ RTR  --- 0 AODV 44 [0 ffffffff 4 800] [energy 0.998965 ei 0.000 es 0.000 et 0.000 er 0.001] ------- [4:255 -1:255 1 0] [0x1 1 [4 2] 4.000000] (HELLO)
r 0.005851028 _7_ RTR  --- 0 AODV 44 [0 ffffffff 4 800] [energy 0.999058 ei 0.000 es 0.000 et 0.000 er 0.001] ------- [4:255 -1:255 1 0] [0x1 1 [4 2] 4.000000] (HELLO)
s 0.750169789 _0_ RTR  --- 0 AODV 44 [0 0 0 0] [energy 0.999627 ei 0.000 es 0.000 et 0.000 er 0.000] ------- [0:255 -1:255 1 0] [0x1 1 [0 4] 4.000000] (HELLO)
s 0.750744789 _0_ MAC  --- 0 AODV 102 [0 ffffffff 0 800] [energy 0.999627 ei 0.000 es 0.000 et 0.000 er 0.000] ------- [0:255 -1:255 1 0] [0x1 1 [0 4] 4.000000] (HELLO)
N -t 0.750746 -n 1 -e 0.961902
r 0.751561991 _1_ MAC  --- 0 AODV 44 [0 ffffffff 0 800] [energy 0.961902 ei 0.037 es 0.000 et 0.000 er 0.001] ------- [0:255 -1:255 1 0] [0x1 1 [0 4] 4.000000] (HELLO)
r 0.751586991 _1_ RTR  --- 0 AODV 44 [0 ffffffff 0 800] [energy 0.961902 ei 0.037 es 0.000 et 0.000 er 0.001] ------- [0:255 -1:255 1 0] [0x1 1 [0 4] 4.000000] (HELLO)
s 0.757102330 _2_ RTR  --- 0 AODV 44 [0 0 0 0] [energy 0.999332 ei 0.000 es 0.000 et 0.000 er 0.000] ------- [2:255 -1:255 1 0] [0x1 1 [2 2] 4.000000] (HELLO)
s 0.757457330 _2_ MAC  --- 0 AODV 102 [0 ffffffff 2 800] [energy 0.999332 ei 0.000 es 0.000 et 0.000 er 0.000] ------- [2:255 -1:255 1 0] [0x1 1 [2 2] 4.000000] (HELLO)
N -t 0.757458 -n 1 -e 0.961444
N -t 0.757458 -n 3 -e 0.961474
N -t 0.757458 -n 11 -e 0.961474
N -t 0.757459 -n 10 -e 0.961576
r 0.758273995 _1_ MAC  --- 0 AODV 44 [0 ffffffff 2 800] [energy 0.961444 ei 0.038 es 0.000 et 0.000 er 0.001] ------- [2:255 -1:255 1 0] [0x1 1 [2 2] 4.000000] (HELLO)
r 0.758274076 _3_ MAC  --- 0 AODV 44 [0 ffffffff 2 800] [energy 0.961474 ei 0.038 es 0.000 et 0.000 er 0.001] ------- [2:255 -1:255 1 0] [0x1 1 [2 2] 4.000000] (HELLO)
r 0.758274332 _11_ MAC  --- 0 AODV 44 [0 ffffffff 2 800] [energy 0.961474 ei 0.038 es 0.000 et 0.000 er 0.001] ------- [2:255 -1:255 1 0] [0x1 1 [2 2] 4.000000] (HELLO)
r 0.758274530 _10_ MAC  --- 0 AODV 44 [0 ffffffff 2 800] [energy 0.961576 ei 0.038 es 0.000 et 0.000 er 0.001] ------- [2:255 -1:255 1 0] [0x1 1 [2 2] 4.000000] (HELLO)
r 0.758298995 _1_ RTR  --- 0 AODV 44 [0 ffffffff 2 800] [energy 0.961444 ei 0.038 es 0.000 et 0.000 er 0.001] ------- [2:255 -1:255 1 0] [0x1 1 [2 2] 4.000000] (HELLO)
r 0.758299076 _3_ RTR  --- 0 AODV 44 [0 ffffffff 2 800] [energy 0.961474 ei 0.038 es 0.000 et 0.000 er 0.001] ------- [2:255 -1:255 1 0] [0x1 1 [2 2] 4.000000] (HELLO)
r 0.758299332 _11_ RTR  --- 0 AODV 44 [0 ffffffff 2 800] [energy 0.961474 ei 0.038 es 0.000 et 0.000 er 0.001] ------- [2:255 -1:255 1 0] [0x1 1 [2 2] 4.000000] (HELLO)
r 0.758299530 _10_ RTR  --- 0 AODV 44 [0 ffffffff 2 800] [energy 0.961576 ei 0.038 es 0.000 et 0.000 er 0.001] ------- [2:255 -1:255 1 0] [0x1 1 [2 2] 4.000000] (HELLO)
s 0.771397279 _13_ RTR  --- 0 AODV 44 [0 0 0 0] [energy 0.999132 ei 0.000 es 0.000 et 0.000 er 0.001] ------- [13:255 -1:255 1 0] [0x1 1 [13 8] 4.000000] (HELLO)
s 0.771692279 _13_ MAC  --- 0 AODV 102 [0 ffffffff d 800] [energy 0.999132 ei 0.000 es 0.000 et 0.000 er 0.001] ------- [13:255 -1:255 1 0] [0x1 1 [13 8] 4.000000] (HELLO)
N -t 0.771693 -n 14 -e 0.960640
N -t 0.771693 -n 5 -e 0.960509
N -t 0.771693 -n 7 -e 0.960601
N -t 0.771693 -n 6 -e 0.960509
N -t 0.771693 -n 12 -e 0.960518
r 0.772508946 _14_ MAC  --- 0 AODV 44 [0 ffffffff d 800] [energy 0.960640 ei 0.038 es 0.000 et 0.000 er 0.001] ------- [13:255 -1:255 1 0] [0x1 1 [13 8] 4.000000] (HELLO)
r 0.772509024 _5_ MAC  --- 0 AODV 44 [0 ffffffff d 800] [energy 0.960509 ei 0.038 es 0.000 et 0.000 er 0.001] ------- [13:255 -1:255 1 0] [0x1 1 [13 8] 4.000000] (HELLO)
r 0.772509222 _7_ MAC  --- 0 AODV 44 [0 ffffffff d 800] [energy 0.960601 ei 0.038 es 0.000 et 0.000 er 0.001] ------- [13:255 -1:255 1 0] [0x1 1 [13 8] 4.000000] (HELLO)
r 0.772509279 _6_ MAC  --- 0 AODV 44 [0 ffffffff d 800] [energy 0.960509 ei 0.038 es 0.000 et 0.000 er 0.001] ------- [13:255 -1:255 1 0] [0x1 1 [13 8] 4.000000] (HELLO)
r 0.772509481 _12_ MAC  --- 0 AODV 44 [0 ffffffff d 800] [energy 0.960518 ei 0.038 es 0.000 et 0.000 er 0.001] ------- [13:255 -1:255 1 0] [0x1 1 [13 8] 4.000000] (HELLO)
r 0.772533946 _14_ RTR  --- 0 AODV 44 [0 ffffffff d 800] [energy 0.960640 ei 0.038 es 0.000 et 0.000 er 0.001] ------- [13:255 -1:255 1 0] [0x1 1 [13 8] 4.000000] (HELLO)
r 0.772534024 _5_ RTR  --- 0 AODV 44 [0 ffffffff d 800] [energy 0.960509 ei 0.038 es 0.000 et 0.000 er 0.001] ------- [13:255 -1:255 1 0] [0x1 1 [13 8] 4.000000] (HELLO)
r 0.772534222 _7_ RTR  --- 0 AODV 44 [0 ffffffff d 800] [energy 0.960601 ei 0.038 es 0.000 et 0.000 er 0.001] ------- [13:255 -1:255 1 0] [0x1 1 [13 8] 4.000000] (HELLO)
r 0.772534279 _6_ RTR  --- 0 AODV 44 [0 ffffffff d 800] [energy 0.960509 ei 0.038 es 0.000 et 0.000 er 0.001] ------- [13:255 -1:255 1 0] [0x1 1 [13 8] 4.000000] (HELLO)
r 0.772534481 _12_ RTR  --- 0 AODV 44 [0 ffffffff d 800] [energy 0.960518 ei 0.038 es 0.000 et 0.000 er 0.001] ------- [13:255 -1:255 1 0] [0x1 1 [13 8] 4.000000] (HELLO)
s 0.794061336 _3_ RTR  --- 0 AODV 44 [0 0 0 0] [energy 0.961474 ei 0.038 es 0.000 et 0.000 er 0.001] ------- [3:255 -1:255 1 0] [0x1 1 [3 8] 4.000000] (HELLO)
s 0.794356336 _3_ MAC  --- 0 AODV 102 [0 ffffffff 3 800] [energy 0.961474 ei 0.038 es 0.000 et 0.000 er 0.001] ------- [3:255 -1:255 1 0] [0x1 1 [3 8] 4.000000] (HELLO)
N -t 0.794357 -n 11 -e 0.959507
N -t 0.794357 -n 2 -e 0.959507
N -t 0.794357 -n 4 -e 0.959364
r 0.795172809 _11_ MAC  --- 0 AODV 44 [0 ffffffff 3 800] [energy 0.959507 ei 0.040 es 0.000 et 0.000 er 0.001] ------- [3:255 -1:255 1 0] [0x1 1 [3 8] 4.000000] (HELLO)
r 0.795173081 _2_ MAC  --- 0 AODV 44 [0 ffffffff 3 800] [energy 0.959507 ei 0.040 es 0.000 et 0.000 er 0.001] ------- [3:255 -1:255 1 0] [0x1 1 [3 8] 4.000000] (HELLO)
r 0.795173081 _4_ MAC  --- 0 AODV 44 [0 ffffffff 3 800] [energy 0.959364 ei 0.039 es 0.000 et 0.000 er 0.001] ------- [3:255 -1:255 1 0] [0x1 1 [3 8] 4.000000] (HELLO)
r 0.795197809 _11_ RTR  --- 0 AODV 44 [0 ffffffff 3 800] [energy 0.959507 ei 0.040 es 0.000 et 0.000 er 0.001] ------- [3:255 -1:255 1 0] [0x1 1 [3 8] 4.000000] (HELLO)
r 0.795198081 _2_ RTR  --- 0 AODV 44 [0 ffffffff 3 800] [energy 0.959507 ei 0.040 es 0.000 et 0.000 er 0.001] ------- [3:255 -1:255 1 0] [0x1 1 [3 8] 4.000000] (HELLO)
r 0.795198081 _4_ RTR  --- 0 AODV 44 [0 ffffffff 3 800] [energy 0.959364 ei 0.039 es 0.000 et 0.000 er 0.001] ------- [3:255 -1:255 1 0] [0x1 1 [3 8] 4.000000] (HELLO)
s 0.832072703 _12_ RTR  --- 0 AODV 44 [0 0 0 0] [energy 0.960518 ei 0.038 es 0.000 et 0.000 er 0.001] ------- [12:255 -1:255 1 0] [0x1 1 [12 12] 4.000000] (HELLO)