n -t * -s 0  -x 0.13997455991999999 -y 2000.1399745599199 -Z 0 -z 20  -v circle -c green
n -t * -s 1  -x 300.41399745599199 -y 1800.4139974559921 -Z 0 -z 20  -v circle -c green
n -t * -s 2  -x 300.90361140667301 -y 1600.903611406673 -Z 0 -z 20  -v circle -c green
n -t * -s 3  -x 400.90361140667301 -y 1400.903611406673 -Z 0 -z 20  -v circle -c green
n -t * -s 4  -x 600.90361140667301 -y 1300.903611406673 -Z 0 -z 20  -v circle -c green
n -t * -s 5  -x 900.90361140667301 -y 1200.903611406673 -Z 0 -z 20  -v circle -c green
n -t * -s 6  -x 800.90361140667301 -y 1300.903611406673 -Z 0 -z 20  -v circle -c green
n -t * -s 7  -x 900.90361140667301 -y 1500.903611406673 -Z 0 -z 20  -v circle -c green
n -t * -s 8  -x 700.41399745599199 -y 1900.4139974559921 -Z 0 -z 20  -v circle -c green
n -t * -s 9  -x 900.41399745599199 -y 1800.4139974559921 -Z 0 -z 20  -v circle -c green
n -t * -s 10  -x 500.41399745599199 -y 1900.4139974559921 -Z 0 -z 20  -v circle -c green
n -t * -s 11  -x 300.41399745599199 -y 1300.4139974559921 -Z 0 -z 20  -v circle -c green
n -t * -s 12  -x 800.90361140667301 -y 1100.903611406673 -Z 0 -z 20  -v circle -c green
n -t * -s 13  -x 1100.903611406673 -y 1300.903611406673 -Z 0 -z 20  -v circle -c green
n -t * -s 14  -x 1100.903611406673 -y 1100.903611406673 -Z 0 -z 20  -v circle -c green
V -t * -v 1.0a5 -a 0
W -t * -x 530 -y 530
A -t * -n 1 -p 0 -o 0x7fffffff -c 30 -a 1
A -t * -h 1 -m 1073741823 -s 0
+ -t 0.000000000 -s 0 -d -1 -p AODV -e 44 -c 2 -a 0 -i 0 -k RTR 
- -t 0.000000000 -s 0 -d -1 -p AODV -e 44 -c 2 -a 0 -i 0 -k RTR
h -t 0.000000000 -s 0 -d -1 -p AODV -e 44 -c 2 -a 0 -i 0 -k RTR
+ -t 0.000000000 -s 1 -d -1 -p AODV -e 44 -c 2 -a 0 -i 0 -k RTR 
- -t 0.000000000 -s 1 -d -1 -p AODV -e 44 -c 2 -a 0 -i 0 -k RTR
h -t 0.000000000 -s 1 -d -1 -p AODV -e 44 -c 2 -a 0 -i 0 -k RTR
+ -t 0.000000000 -s 2 -d -1 -p AODV -e 44 -c 2 -a 0 -i 0 -k RTR 
- -t 0.000000000 -s 2 -d -1 -p AODV -e 44 -c 2 -a 0 -i 0 -k RTR
h -t 0.000000000 -s 2 -d -1 -p AODV -e 44 -c 2 -a 0 -i 0 -k RTR
+ -t 0.000000000 -s 3 -d -1 -p AODV -e 44 -c 2 -a 0 -i 0 -k RTR 
- -t 0.000000000 -s 3 -d -1 -p AODV -e 44 -c 2 -a 0 -i 0 -k RTR
h -t 0.000000000 -s 3 -d -1 -p AODV -e 44 -c 2 -a 0 -i 0 -k RTR
+ -t 0.000000000 -s 4 -d -1 -p AODV -e 44 -c 2 -a 0 -i 0 -k RTR 
- -t 0.000000000 -s 4 -d -1 -p AODV -e 44 -c 2 -a 0 -i 0 -k RTR
h -t 0.000000000 -s 4 -d -1 -p AODV -e 44 -c 2 -a 0 -i 0 -k RTR
+ -t 0.000000000 -s 5 -d -1 -p AODV -e 44 -c 2 -a 0 -i 0 -k RTR 
- -t 0.000000000 -s 5 -d -1 -p AODV -e 44 -c 2 -a 0 -i 0 -k RTR
h -t 0.000000000 -s 5 -d -1 -p AODV -e 44 -c 2 -a 0 -i 0 -k RTR
+ -t 0.000000000 -s 6 -d -1 -p AODV -e 44 -c 2 -a 0 -i 0 -k RTR 
- -t 0.000000000 -s 6 -d -1 -p AODV -e 44 -c 2 -a 0 -i 0 -k RTR
h -t 0.000000000 -s 6 -d -1 -p AODV -e 44 -c 2 -a 0 -i 0 -k RTR
+ -t 0.000000000 -s 7 -d -1 -p AODV -e 44 -c 2 -a 0 -i 0 -k RTR 
- -t 0.000000000 -s 7 -d -1 -p AODV -e 44 -c 2 -a 0 -i 0 -k RTR
h -t 0.000000000 -s 7 -d -1 -p AODV -e 44 -c 2 -a 0 -i 0 -k RTR
+ -t 0.000000000 -s 8 -d -1 -p AODV -e 44 -c 2 -a 0 -i 0 -k RTR 
- -t 0.000000000 -s 8 -d -1 -p AODV -e 44 -c 2 -a 0 -i 0 -k RTR
h -t 0.000000000 -s 8 -d -1 -p AODV -e 44 -c 2 -a 0 -i 0 -k RTR
+ -t 0.000000000 -s 9 -d -1 -p AODV -e 44 -c 2 -a 0 -i 0 -k RTR 
- -t 0.000000000 -s 9 -d -1 -p AODV -e 44 -c 2 -a 0 -i 0 -k RTR
h -t 0.000000000 -s 9 -d -1 -p AODV -e 44 -c 2 -a 0 -i 0 -k RTR
+ -t 0.000000000 -s 10 -d -1 -p AODV -e 44 -c 2 -a 0 -i 0 -k RTR 
- -t 0.000000000 -s 10 -d -1 -p AODV -e 44 -c 2 -a 0 -i 0 -k RTR
h -t 0.000000000 -s 10 -d -1 -p AODV -e 44 -c 2 -a 0 -i 0 -k RTR
+ -t 0.000000000 -s 11 -d -1 -p AODV -e 44 -c 2 -a 0 -i 0 -k RTR 
- -t 0.000000000 -s 11 -d -1 -p AODV -e 44 -c 2 -a 0 -i 0 -k RTR
h -t 0.000000000 -s 11 -d -1 -p AODV -e 44 -c 2 -a 0 -i 0 -k RTR
+ -t 0.000000000 -s 12 -d -1 -p AODV -e 44 -c 2 -a 0 -i 0 -k RTR 
- -t 0.000000000 -s 12 -d -1 -p AODV -e 44 -c 2 -a 0 -i 0 -k RTR
h -t 0.000000000 -s 12 -d -1 -p AODV -e 44 -c 2 -a 0 -i 0 -k RTR
+ -t 0.000000000 -s 13 -d -1 -p AODV -e 44 -c 2 -a 0 -i 0 -k RTR 
- -t 0.000000000 -s 13 -d -1 -p AODV -e 44 -c 2 -a 0 -i 0 -k RTR
h -t 0.000000000 -s 13 -d -1 -p AODV -e 44 -c 2 -a 0 -i 0 -k RTR
+ -t 0.000000000 -s 14 -d -1 -p AODV -e 44 -c 2 -a 0 -i 0 -k RTR 
- -t 0.000000000 -s 14 -d -1 -p AODV -e 44 -c 2 -a 0 -i 0 -k RTR
h -t 0.000000000 -s 14 -d -1 -p AODV -e 44 -c 2 -a 0 -i 0 -k RTR
+ -t 0.000095000 -s 8 -d -1 -p AODV -e 102 -c 2 -a 0 -i 0 -k MAC 
- -t 0.000095000 -s 8 -d -1 -p AODV -e 102 -c 2 -a 0 -i 0 -k MAC
h -t 0.000095000 -s 8 -d -1 -p AODV -e 102 -c 2 -a 0 -i 0 -k MAC
+ -t 0.000235000 -s 2 -d -1 -p AODV -e 102 -c 2 -a 0 -i 0 -k MAC 
- -t 0.000235000 -s 2 -d -1 -p AODV -e 102 -c 2 -a 0 -i 0 -k MAC
h -t 0.000235000 -s 2 -d -1 -p AODV -e 102 -c 2 -a 0 -i 0 -k MAC
+ -t 0.000275000 -s 6 -d -1 -p AODV -e 102 -c 2 -a 0 -i 0 -k MAC 
- -t 0.000275000 -s 6 -d -1 -p AODV -e 102 -c 2 -a 0 -i 0 -k MAC
h -t 0.000275000 -s 6 -d -1 -p AODV -e 102 -c 2 -a 0 -i 0 -k MAC
+ -t 0.000435000 -s 0 -d -1 -p AODV -e 102 -c 2 -a 0 -i 0 -k MAC 
- -t 0.000435000 -s 0 -d -1 -p AODV -e 102 -c 2 -a 0 -i 0 -k MAC
h -t 0.000435000 -s 0 -d -1 -p AODV -e 102 -c 2 -a 0 -i 0 -k MAC
r -t 0.000911667 -s 10 -d -1 -p AODV -e 44 -c 2 -a 0 -i 0 -k MAC
r -t 0.000911745 -s 9 -d -1 -p AODV -e 44 -c 2 -a 0 -i 0 -k MAC
r -t 0.000936667 -s 10 -d -1 -p AODV -e 44 -c 2 -a 0 -i 0 -k RTR
r -t 0.000936745 -s 9 -d -1 -p AODV -e 44 -c 2 -a 0 -i 0 -k RTR
r -t 0.001051665 -s 1 -d -1 -p AODV -e 44 -c 2 -a 0 -i 0 -k MAC
r -t 0.001051745 -s 3 -d -1 -p AODV -e 44 -c 2 -a 0 -i 0 -k MAC
r -t 0.001052002 -s 11 -d -1 -p AODV -e 44 -c 2 -a 0 -i 0 -k MAC
r -t 0.001076665 -s 1 -d -1 -p AODV -e 44 -c 2 -a 0 -i 0 -k RTR
r -t 0.001076745 -s 3 -d -1 -p AODV -e 44 -c 2 -a 0 -i 0 -k RTR
r -t 0.001077002 -s 11 -d -1 -p AODV -e 44 -c 2 -a 0 -i 0 -k RTR
r -t 0.001091471 -s 5 -d -1 -p AODV -e 44 -c 2 -a 0 -i 0 -k MAC
r -t 0.001091667 -s 4 -d -1 -p AODV -e 44 -c 2 -a 0 -i 0 -k MAC
r -t 0.001091667 -s 12 -d -1 -p AODV -e 44 -c 2 -a 0 -i 0 -k MAC
r -t 0.001091745 -s 7 -d -1 -p AODV -e 44 -c 2 -a 0 -i 0 -k MAC
r -t 0.001092000 -s 13 -d -1 -p AODV -e 44 -c 2 -a 0 -i 0 -k MAC
r -t 0.001092202 -s 14 -d -1 -p AODV -e 44 -c 2 -a 0 -i 0 -k MAC
r -t 0.001116471 -s 5 -d -1 -p AODV -e 44 -c 2 -a 0 -i 0 -k RTR
r -t 0.001116667 -s 4 -d -1 -p AODV -e 44 -c 2 -a 0 -i 0 -k RTR
r -t 0.001116667 -s 12 -d -1 -p AODV -e 44 -c 2 -a 0 -i 0 -k RTR
r -t 0.001116745 -s 7 -d -1 -p AODV -e 44 -c 2 -a 0 -i 0 -k RTR
r -t 0.001117000 -s 13 -d -1 -p AODV -e 44 -c 2 -a 0 -i 0 -k RTR
r -t 0.001117202 -s 14 -d -1 -p AODV -e 44 -c 2 -a 0 -i 0 -k RTR
+ -t 0.001122002 -s 11 -d -1 -p AODV -e 102 -c 2 -a 0 -i 0 -k MAC 
- -t 0.001122002 -s 11 -d -1 -p AODV -e 102 -c 2 -a 0 -i 0 -k MAC
h -t 0.001122002 -s 11 -d -1 -p AODV -e 102 -c 2 -a 0 -i 0 -k MAC
+ -t 0.001161745 -s 7 -d -1 -p AODV -e 102 -c 2 -a 0 -i 0 -k MAC 
- -t 0.001161745 -s 7 -d -1 -p AODV -e 102 -c 2 -a 0 -i 0 -k MAC
h -t 0.001161745 -s 7 -d -1 -p AODV -e 102 -c 2 -a 0 -i 0 -k MAC
d -t 0.001162947 -s 4 -d -1 -p AODV -e 102 -c 2 -a 0 -i 0 -k MAC
+ -t 0.001482202 -s 14 -d -1 -p AODV -e 102 -c 2 -a 0 -i 0 -k MAC 
- -t 0.001482202 -s 14 -d -1 -p AODV -e 102 -c 2 -a 0 -i 0 -k MAC
h -t 0.001482202 -s 14 -d -1 -p AODV -e 102 -c 2 -a 0 -i 0 -k MAC
d -t 0.001482869 -s 13 -d -1 -p AODV -e 102 -c 2 -a 0 -i 0 -k MAC
d -t 0.001482947 -s 5 -d -1 -p AODV -e 102 -c 2 -a 0 -i 0 -k MAC
d -t 0.001483404 -s 6 -d -1 -p AODV -e 102 -c 2 -a 0 -i 0 -k MAC
+ -t 0.001746202 -s 1 -d -1 -p AODV -e 102 -c 2 -a 0 -i 0 -k MAC 
- -t 0.001746202 -s 1 -d -1 -p AODV -e 102 -c 2 -a 0 -i 0 -k MAC
h -t 0.001746202 -s 1 -d -1 -p AODV -e 102 -c 2 -a 0 -i 0 -k MAC
d -t 0.001746867 -s 2 -d -1 -p AODV -e 102 -c 2 -a 0 -i 0 -k MAC
r -t 0.001938475 -s 3 -d -1 -p AODV -e 44 -c 2 -a 0 -i 0 -k MAC
r -t 0.001963475 -s 3 -d -1 -p AODV -e 44 -c 2 -a 0 -i 0 -k RTR
r -t 0.001978744 -s 9 -d -1 -p AODV -e 44 -c 2 -a 0 -i 0 -k MAC
d -t 0.001978947 -s 4 -d -1 -p AODV -e 102 -c 2 -a 0 -i 0 -k MAC
r -t 0.002003744 -s 9 -d -1 -p AODV -e 44 -c 2 -a 0 -i 0 -k RTR
+ -t 0.002048744 -s 9 -d -1 -p AODV -e 102 -c 2 -a 0 -i 0 -k MAC 
- -t 0.002048744 -s 9 -d -1 -p AODV -e 102 -c 2 -a 0 -i 0 -k MAC
h -t 0.002048744 -s 9 -d -1 -p AODV -e 102 -c 2 -a 0 -i 0 -k MAC
+ -t 0.002288475 -s 3 -d -1 -p AODV -e 102 -c 2 -a 0 -i 0 -k MAC 
- -t 0.002288475 -s 3 -d -1 -p AODV -e 102 -c 2 -a 0 -i 0 -k MAC
h -t 0.002288475 -s 3 -d -1 -p AODV -e 102 -c 2 -a 0 -i 0 -k MAC
d -t 0.002289221 -s 2 -d -1 -p AODV -e 102 -c 2 -a 0 -i 0 -k MAC
d -t 0.002298869 -s 13 -d -1 -p AODV -e 102 -c 2 -a 0 -i 0 -k MAC
d -t 0.002298947 -s 5 -d -1 -p AODV -e 102 -c 2 -a 0 -i 0 -k MAC
r -t 0.002299202 -s 12 -d -1 -p AODV -e 44 -c 2 -a 0 -i 0 -k MAC
d -t 0.002299404 -s 6 -d -1 -p AODV -e 102 -c 2 -a 0 -i 0 -k MAC
r -t 0.002324202 -s 12 -d -1 -p AODV -e 44 -c 2 -a 0 -i 0 -k RTR
+ -t 0.002389202 -s 12 -d -1 -p AODV -e 102 -c 2 -a 0 -i 0 -k MAC 
- -t 0.002389202 -s 12 -d -1 -p AODV -e 102 -c 2 -a 0 -i 0 -k MAC
h -t 0.002389202 -s 12 -d -1 -p AODV -e 102 -c 2 -a 0 -i 0 -k MAC
d -t 0.002390145 -s 4 -d -1 -p AODV -e 102 -c 2 -a 0 -i 0 -k MAC
r -t 0.002562947 -s 10 -d -1 -p AODV -e 44 -c 2 -a 0 -i 0 -k MAC
r -t 0.002563404 -s 0 -d -1 -p AODV -e 44 -c 2 -a 0 -i 0 -k MAC
r -t 0.002587947 -s 10 -d -1 -p AODV -e 44 -c 2 -a 0 -i 0 -k RTR
r -t 0.002588404 -s 0 -d -1 -p AODV -e 44 -c 2 -a 0 -i 0 -k RTR
+ -t 0.002752947 -s 10 -d -1 -p AODV -e 102 -c 2 -a 0 -i 0 -k MAC 
- -t 0.002752947 -s 10 -d -1 -p AODV -e 102 -c 2 -a 0 -i 0 -k MAC
h -t 0.002752947 -s 10 -d -1 -p AODV -e 102 -c 2 -a 0 -i 0 -k MAC
d -t 0.002753614 -s 8 -d -1 -p AODV -e 102 -c 2 -a 0 -i 0 -k MAC
d -t 0.002754147 -s 2 -d -1 -p AODV -e 102 -c 2 -a 0 -i 0 -k MAC
r -t 0.002865742 -s 7 -d -1 -p AODV -e 44 -c 2 -a 0 -i 0 -k MAC
r -t 0.002890742 -s 7 -d -1 -p AODV -e 44 -c 2 -a 0 -i 0 -k RTR
r -t 0.003104949 -s 11 -d -1 -p AODV -e 44 -c 2 -a 0 -i 0 -k MAC
r -t 0.003129949 -s 11 -d -1 -p AODV -e 44 -c 2 -a 0 -i 0 -k RTR
r -t 0.003205673 -s 5 -d -1 -p AODV -e 44 -c 2 -a 0 -i 0 -k MAC
r -t 0.003205869 -s 6 -d -1 -p AODV -e 44 -c 2 -a 0 -i 0 -k MAC
d -t 0.003206145 -s 4 -d -1 -p AODV -e 102 -c 2 -a 0 -i 0 -k MAC
r -t 0.003206202 -s 14 -d -1 -p AODV -e 44 -c 2 -a 0 -i 0 -k MAC
r -t 0.003206404 -s 13 -d -1 -p AODV -e 44 -c 2 -a 0 -i 0 -k MAC
r -t 0.003230673 -s 5 -d -1 -p AODV -e 44 -c 2 -a 0 -i 0 -k RTR
r -t 0.003230869 -s 6 -d -1 -p AODV -e 44 -c 2 -a 0 -i 0 -k RTR
r -t 0.003231202 -s 14 -d -1 -p AODV -e 44 -c 2 -a 0 -i 0 -k RTR
r -t 0.003231404 -s 13 -d -1 -p AODV -e 44 -c 2 -a 0 -i 0 -k RTR
+ -t 0.003355673 -s 5 -d -1 -p AODV -e 102 -c 2 -a 0 -i 0 -k MAC 
- -t 0.003355673 -s 5 -d -1 -p AODV -e 102 -c 2 -a 0 -i 0 -k MAC
h -t 0.003355673 -s 5 -d -1 -p AODV -e 102 -c 2 -a 0 -i 0 -k MAC
d -t 0.003569614 -s 8 -d -1 -p AODV -e 102 -c 2 -a 0 -i 0 -k MAC
r -t 0.003569693 -s 1 -d -1 -p AODV -e 44 -c 2 -a 0 -i 0 -k MAC
d -t 0.003570147 -s 2 -d -1 -p AODV -e 102 -c 2 -a 0 -i 0 -k MAC
r -t 0.003594693 -s 1 -d -1 -p AODV -e 44 -c 2 -a 0 -i 0 -k RTR
r -t 0.004172145 -s 12 -d -1 -p AODV -e 44 -c 2 -a 0 -i 0 -k MAC
r -t 0.004172145 -s 6 -d -1 -p AODV -e 44 -c 2 -a 0 -i 0 -k MAC
r -t 0.004172419 -s 13 -d -1 -p AODV -e 44 -c 2 -a 0 -i 0 -k MAC
r -t 0.004172419 -s 14 -d -1 -p AODV -e 44 -c 2 -a 0 -i 0 -k MAC
r -t 0.004172673 -s 7 -d -1 -p AODV -e 44 -c 2 -a 0 -i 0 -k MAC
r -t 0.004172727 -s 4 -d -1 -p AODV -e 44 -c 2 -a 0 -i 0 -k MAC
r -t 0.004197145 -s 12 -d -1 -p AODV -e 44 -c 2 -a 0 -i 0 -k RTR
r -t 0.004197145 -s 6 -d -1 -p AODV -e 44 -c 2 -a 0 -i 0 -k RTR
r -t 0.004197419 -s 13 -d -1 -p AODV -e 44 -c 2 -a 0 -i 0 -k RTR
r -t 0.004197419 -s 14 -d -1 -p AODV -e 44 -c 2 -a 0 -i 0 -k RTR
r -t 0.004197673 -s 7 -d -1 -p AODV -e 44 -c 2 -a 0 -i 0 -k RTR
r -t 0.004197727 -s 4 -d -1 -p AODV -e 44 -c 2 -a 0 -i 0 -k RTR
+ -t 0.004302419 -s 13 -d -1 -p AODV -e 102 -c 2 -a 0 -i 0 -k MAC 
- -t 0.004302419 -s 13 -d -1 -p AODV -e 102 -c 2 -a 0 -i 0 -k MAC
h -t 0.004302419 -s 13 -d -1 -p AODV -e 102 -c 2 -a 0 -i 0 -k MAC
+ -t 0.004362727 -s 4 -d -1 -p AODV -e 102 -c 2 -a 0 -i 0 -k MAC 
- -t 0.004362727 -s 4 -d -1 -p AODV -e 102 -c 2 -a 0 -i 0 -k MAC
h -t 0.004362727 -s 4 -d -1 -p AODV -e 102 -c 2 -a 0 -i 0 -k MAC
d -t 0.004363394 -s 6 -d -1 -p AODV -e 102 -c 2 -a 0 -i 0 -k MAC
d -t 0.004363670 -s 12 -d -1 -p AODV -e 102 -c 2 -a 0 -i 0 -k MAC
d -t 0.004363781 -s 5 -d -1 -p AODV -e 102 -c 2 -a 0 -i 0 -k MAC
d -t 0.004363929 -s 7 -d -1 -p AODV -e 102 -c 2 -a 0 -i 0 -k MAC
r -t 0.005119085 -s 14 -d -1 -p AODV -e 44 -c 2 -a 0 -i 0 -k MAC
r -t 0.005144085 -s 14 -d -1 -p AODV -e 44 -c 2 -a 0 -i 0 -k RTR
d -t 0.005179394 -s 6 -d -1 -p AODV -e 102 -c 2 -a 0 -i 0 -k MAC
r -t 0.005179473 -s 3 -d -1 -p AODV -e 44 -c 2 -a 0 -i 0 -k MAC
d -t 0.005179670 -s 12 -d -1 -p AODV -e 102 -c 2 -a 0 -i 0 -k MAC
r -t 0.005179729 -s 11 -d -1 -p AODV -e 44 -c 2 -a 0 -i 0 -k MAC
d -t 0.005179781 -s 5 -d -1 -p AODV -e 102 -c 2 -a 0 -i 0 -k MAC
d -t 0.005179929 -s 7 -d -1 -p AODV -e 102 -c 2 -a 0 -i 0 -k MAC
r -t 0.005204473 -s 3 -d -1 -p AODV -e 44 -c 2 -a 0 -i 0 -k RTR
r -t 0.005204729 -s 11 -d -1 -p AODV -e 44 -c 2 -a 0 -i 0 -k RTR
+ -t 0.750169789 -s 0 -d -1 -p AODV -e 44 -c 2 -a 0 -i 0 -k RTR 
- -t 0.750169789 -s 0 -d -1 -p AODV -e 44 -c 2 -a 0 -i 0 -k RTR
h -t 0.750169789 -s 0 -d -1 -p AODV -e 44 -c 2 -a 0 -i 0 -k RTR
+ -t 0.750744789 -s 0 -d -1 -p AODV -e 102 -c 2 -a 0 -i 0 -k MAC 
- -t 0.750744789 -s 0 -d -1 -p AODV -e 102 -c 2 -a 0 -i 0 -k MAC
h -t 0.750744789 -s 0 -d -1 -p AODV -e 102 -c 2 -a 0 -i 0 -k MAC
r -t 0.751561991 -s 1 -d -1 -p AODV -e 44 -c 2 -a 0 -i 0 -k MAC
r -t 0.751586991 -s 1 -d -1 -p AODV -e 44 -c 2 -a 0 -i 0 -k RTR
+ -t 0.757102330 -s 2 -d -1 -p AODV -e 44 -c 2 -a 0 -i 0 -k RTR 
- -t 0.757102330 -s 2 -d -1 -p AODV -e 44 -c 2 -a 0 -i 0 -k RTR
h -t 0.757102330 -s 2 -d -1 -p AODV -e 44 -c 2 -a 0 -i 0 -k RTR
+ -t 0.757457330 -s 2 -d -1 -p AODV -e 102 -c 2 -a 0 -i 0 -k MAC 
- -t 0.757457330 -s 2 -d -1 -p AODV -e 102 -c 2 -a 0 -i 0 -k MAC
h -t 0.757457330 -s 2 -d -1 -p AODV -e 102 -c 2 -a 0 -i 0 -k MAC
r -t 0.758273995 -s 1 -d -1 -p AODV -e 44 -c 2 -a 0 -i 0 -k MAC
r -t 0.758274076 -s 3 -d -1 -p AODV -e 44 -c 2 -a 0 -i 0 -k MAC
r -t 0.758274332 -s 11 -d -1 -p AODV -e 44 -c 2 -a 0 -i 0 -k MAC
r -t 0.758274530 -s 10 -d -1 -p AODV -e 44 -c 2 -a 0 -i 0 -k MAC
r -t 0.758298995 -s 1 -d -1 -p AODV -e 44 -c 2 -a 0 -i 0 -k RTR
r -t 0.758299076 -s 3 -d -1 -p AODV -e 44 -c 2 -a 0 -i 0 -k RTR
r -t 0.758299332 -s 11 -d -1 -p AODV -e 44 -c 2 -a 0 -i 0 -k RTR
r -t 0.758299530 -s 10 -d -1 -p AODV -e 44 -c 2 -a 0 -i 0 -k RTR
+ -t 0.771397279 -s 13 -d -1 -p AODV -e 44 -c 2 -a 0 -i 0 -k RTR 
- -t 0.771397279 -s 13 -d -1 -p AODV -e 44 -c 2 -a 0 -i 0 -k RTR
h -t 0.771397279 -s 13 -d -1 -p AODV -e 44 -c 2 -a 0 -i 0 -k RTR
+ -t 0.771692279 -s 13 -d -1 -p AODV -e 102 -c 2 -a 0 -i 0 -k MAC 
- -t 0.771692279 -s 13 -d -1 -p AODV -e 102 -c 2 -a 0 -i 0 -k MAC
h -t 0.771692279 -s 13 -d -1 -p AODV -e 102 -c 2 -a 0 -i 0 -k MAC
r -t 0.772508946 -s 14 -d -1 -p AODV -e 44 -c 2 -a 0 -i 0 -k MAC
r -t 0.772509024 -s 5 -d -1 -p AODV -e 44 -c 2 -a 0 -i 0 -k MAC
r -t 0.772509222 -s 7 -d -1 -p AODV -e 44 -c 2 -a 0 -i 0 -k MAC
r -t 0.772509279 -s 6 -d -1 -p AODV -e 44 -c 2 -a 0 -i 0 -k MAC
r -t 0.772509481 -s 12 -d -1 -p AODV -e 44 -c 2 -a 0 -i 0 -k MAC
r -t 0.772533946 -s 14 -d -1 -p AODV -e 44 -c 2 -a 0 -i 0 -k RTR
r -t 0.772534024 -s 5 -d -1 -p AODV -e 44 -c 2 -a 0 -i 0 -k RTR
r -t 0.772534222 -s 7 -d -1 -p AODV -e 44 -c 2 -a 0 -i 0 -k RTR
r -t 0.772534279 -s 6 -d -1 -p AODV -e 44 -c 2 -a 0 -i 0 -k RTR
r -t 0.772534481 -s 12 -d -1 -p AODV -e 44 -c 2 -a 0 -i 0 -k RTR
+ -t 0.794061336 -s 3 -d -1 -p AODV -e 44 -c 2 -a 0 -i 0 -k RTR 
- -t 0.794061336 -s 3 -d -1 -p AODV -e 44 -c 2 -a 0 -i 0 -k RTR
h -t 0.794061336 -s 3 -d -1 -p AODV -e 44 -c 2 -a 0 -i 0 -k RTR
+ -t 0.794356336 -s 3 -d -1 -p AODV -e 102 -c 2 -a 0 -i 0 -k MAC 
- -t 0.794356336 -s 3 -d -1 -p AODV -e 102 -c 2 -a 0 -i 0 -k MAC
h -t 0.794356336 -s 3 -d -1 -p AODV -e 102 -c 2 -a 0 -i 0 -k MAC
r -t 0.795172809 -s 11 -d -1 -p AODV -e 44 -c 2 -a 0 -i 0 -k MAC
r -t 0.795173081 -s 2 -d -1 -p AODV -e 44 -c 2 -a 0 -i 0 -k MAC
r -t 0.795173081 -s 4 -d -1 -p AODV -e 44 -c 2 -a 0 -i 0 -k MAC
r -t 0.795197809 -s 11 -d -1 -p AODV -e 44 -c 2 -a 0 -i 0 -k RTR
r -t 0.795198081 -s 2 -d -1 -p AODV -e 44 -c 2 -a 0 -i 0 -k RTR
r -t 0.795198081 -s 4 -d -1 -p AODV -e 44 -c 2 -a 0 -i 0 -k RTR
+ -t 0.832072703 -s 12 -d -1 -p AODV -e 44 -c 2 -a 0 -i 0 -k RTR 
- -t 0.832072703 -s 12 -d -1 -p AODV -e 44 -c 2 -a 0 -i 0 -k RTR
h -t 0.832072703 -s 12 -d -1 -p AODV -e 44 -c 2 -a 0 -i 0 -k RTR
+ -t 0.832147703 -s 12 -d -1 -p AODV -e 102 -c 2 -a 0 -i 0 -k MAC 
- -t 0.832147703 -s 12 -d -1 -p AODV -e 102 -c 2 -a 0 -i 0 -k MAC
h -t 0.832147703 -s 12 -d -1 -p AODV -e 102 -c 2 -a 0 -i 0 -k MAC
r -t 0.832964175 -s 5 -d -1 -p AODV -e 44 -c 2 -a 0 -i 0 -k MAC
r -t 0.832964370 -s 6 -d -1 -p AODV -e 44 -c 2 -a 0 -i 0 -k MAC
r -t 0.832964646 -s 4 -d -1 -p AODV -e 44 -c 2 -a 0 -i 0 -k MAC
r -t 0.832964703 -s 14 -d -1 -p AODV -e 44 -c 2 -a 0 -i 0 -k MAC
r -t 0.832964905 -s 13 -d -1 -p AODV -e 44 -c 2 -a 0 -i 0 -k MAC
r -t 0.832989175 -s 5 -d -1 -p AODV -e 44 -c 2 -a 0 -i 0 -k RTR
r -t 0.832989370 -s 6 -d -1 -p AODV -e 44 -c 2 -a 0 -i 0 -k RTR
r -t 0.832989646 -s 4 -d -1 -p AODV -e 44 -c 2 -a 0 -i 0 -k RTR
r -t 0.832989703 -s 14 -d -1 -p AODV -e 44 -c 2 -a 0 -i 0 -k RTR
r -t 0.832989905 -s 13 -d -1 -p AODV -e 44 -c 2 -a 0 -i 0 -k RTR
+ -t 0.867300876 -s 8 -d -1 -p AODV -e 44 -c 2 -a 0 -i 0 -k RTR 
- -t 0.867300876 -s 8 -d -1 -p AODV -e 44 -c 2 -a 0 -i 0 -k RTR
h -t 0.867300876 -s 8 -d -1 -p AODV -e 44 -c 2 -a 0 -i 0 -k RTR
+ -t 0.867655876 -s 8 -d -1 -p AODV -e 102 -c 2 -a 0 -i 0 -k MAC 
- -t 0.867655876 -s 8 -d -1 -p AODV -e 102 -c 2 -a 0 -i 0 -k MAC
h -t 0.867655876 -s 8 -d -1 -p AODV -e 102 -c 2 -a 0 -i 0 -k MAC
r -t 0.868472543 -s 10 -d -1 -p AODV -e 44 -c 2 -a 0 -i 0 -k MAC
r -t 0.868472621 -s 9 -d -1 -p AODV -e 44 -c 2 -a 0 -i 0 -k MAC
r -t 0.868497543 -s 10 -d -1 -p AODV -e 44 -c 2 -a 0 -i 0 -k RTR
r -t 0.868497621 -s 9 -d -1 -p AODV -e 44 -c 2 -a 0 -i 0 -k RTR
+ -t 0.904539529 -s 10 -d -1 -p AODV -e 44 -c 2 -a 0 -i 0 -k RTR 
- -t 0.904539529 -s 10 -d -1 -p AODV -e 44 -c 2 -a 0 -i 0 -k RTR
h -t 0.904539529 -s 10 -d -1 -p AODV -e 44 -c 2 -a 0 -i 0 -k RTR
+ -t 0.904854529 -s 10 -d -1 -p AODV -e 102 -c 2 -a 0 -i 0 -k MAC 
- -t 0.904854529 -s 10 -d -1 -p AODV -e 102 -c 2 -a 0 -i 0 -k MAC
h -t 0.904854529 -s 10 -d -1 -p AODV -e 102 -c 2 -a 0 -i 0 -k MAC
r -t 0.905671196 -s 8 -d -1 -p AODV -e 44 -c 2 -a 0 -i 0 -k MAC
r -t 0.905671274 -s 1 -d -1 -p AODV -e 44 -c 2 -a 0 -i 0 -k MAC
r -t 0.905671729 -s 2 -d -1 -p AODV -e 44 -c 2 -a 0 -i 0 -k MAC
r -t 0.905696196 -s 8 -d -1 -p AODV -e 44 -c 2 -a 0 -i 0 -k RTR
r -t 0.905696274 -s 1 -d -1 -p AODV -e 44 -c 2 -a 0 -i 0 -k RTR
r -t 0.905696729 -s 2 -d -1 -p AODV -e 44 -c 2 -a 0 -i 0 -k RTR
+ -t 0.906480886 -s 6 -d -1 -p AODV -e 44 -c 2 -a 0 -i 0 -k RTR 
- -t 0.906480886 -s 6 -d -1 -p AODV -e 44 -c 2 -a 0 -i 0 -k RTR
h -t 0.906480886 -s 6 -d -1 -p AODV -e 44 -c 2 -a 0 -i 0 -k RTR
+ -t 0.906595886 -s 6 -d -1 -p AODV -e 102 -c 2 -a 0 -i 0 -k MAC 
- -t 0.906595886 -s 6 -d -1 -p AODV -e 102 -c 2 -a 0 -i 0 -k MAC
h -t 0.906595886 -s 6 -d -1 -p AODV -e 102 -c 2 -a 0 -i 0 -k MAC
r -t 0.907412357 -s 5 -d -1 -p AODV -e 44 -c 2 -a 0 -i 0 -k MAC
r -t 0.907412552 -s 4 -d -1 -p AODV -e 44 -c 2 -a 0 -i 0 -k MAC
r -t 0.907412552 -s 12 -d -1 -p AODV -e 44 -c 2 -a 0 -i 0 -k MAC
r -t 0.907412631 -s 7 -d -1 -p AODV -e 44 -c 2 -a 0 -i 0 -k MAC
r -t 0.907412886 -s 13 -d -1 -p AODV -e 44 -c 2 -a 0 -i 0 -k MAC
r -t 0.907413088 -s 14 -d -1 -p AODV -e 44 -c 2 -a 0 -i 0 -k MAC
r -t 0.907437357 -s 5 -d -1 -p AODV -e 44 -c 2 -a 0 -i 0 -k RTR
r -t 0.907437552 -s 4 -d -1 -p AODV -e 44 -c 2 -a 0 -i 0 -k RTR
r -t 0.907437552 -s 12 -d -1 -p AODV -e 44 -c 2 -a 0 -i 0 -k RTR
r -t 0.907437631 -s 7 -d -1 -p AODV -e 44 -c 2 -a 0 -i 0 -k RTR
r -t 0.907437886 -s 13 -d -1 -p AODV -e 44 -c 2 -a 0 -i 0 -k RTR
r -t 0.907438088 -s 14 -d -1 -p AODV -e 44 -c 2 -a 0 -i 0 -k RTR
+ -t 0.970586691 -s 4 -d -1 -p AODV -e 44 -c 2 -a 0 -i 0 -k RTR 
- -t 0.970586691 -s 4 -d -1 -p AODV -e 44 -c 2 -a 0 -i 0 -k RTR
h -t 0.970586691 -s 4 -d -1 -p AODV -e 44 -c 2 -a 0 -i 0 -k RTR
+ -t 0.970861691 -s 4 -d -1 -p AODV -e 102 -c 2 -a 0 -i 0 -k MAC 
- -t 0.970861691 -s 4 -d -1 -p AODV -e 102 -c 2 -a 0 -i 0 -k MAC
h -t 0.970861691 -s 4 -d -1 -p AODV -e 102 -c 2 -a 0 -i 0 -k MAC
r -t 0.971678358 -s 6 -d -1 -p AODV -e 44 -c 2 -a 0 -i 0 -k MAC
r -t 0.971678436 -s 3 -d -1 -p AODV -e 44 -c 2 -a 0 -i 0 -k MAC
r -t 0.971678634 -s 12 -d -1 -p AODV -e 44 -c 2 -a 0 -i 0 -k MAC
r -t 0.971678693 -s 11 -d -1 -p AODV -e 44 -c 2 -a 0 -i 0 -k MAC
r -t 0.971678745 -s 5 -d -1 -p AODV -e 44 -c 2 -a 0 -i 0 -k MAC
r -t 0.971678893 -s 7 -d -1 -p AODV -e 44 -c 2 -a 0 -i 0 -k MAC
r -t 0.971703358 -s 6 -d -1 -p AODV -e 44 -c 2 -a 0 -i 0 -k RTR
r -t 0.971703436 -s 3 -d -1 -p AODV -e 44 -c 2 -a 0 -i 0 -k RTR
r -t 0.971703634 -s 12 -d -1 -p AODV -e 44 -c 2 -a 0 -i 0 -k RTR
r -t 0.971703693 -s 11 -d -1 -p AODV -e 44 -c 2 -a 0 -i 0 -k RTR
r -t 0.971703745 -s 5 -d -1 -p AODV -e 44 -c 2 -a 0 -i 0 -k RTR
r -t 0.971703893 -s 7 -d -1 -p AODV -e 44 -c 2 -a 0 -i 0 -k RTR
+ -t 1.027940358 -s 1 -d -1 -p AODV -e 44 -c 2 -a 0 -i 0 -k RTR 
- -t 1.027940358 -s 1 -d -1 -p AODV -e 44 -c 2 -a 0 -i 0 -k RTR
h -t 1.027940358 -s 1 -d -1 -p AODV -e 44 -c 2 -a 0 -i 0 -k RTR
+ -t 1.028275358 -s 1 -d -1 -p AODV -e 102 -c 2 -a 0 -i 0 -k MAC 
- -t 1.028275358 -s 1 -d -1 -p AODV -e 102 -c 2 -a 0 -i 0 -k MAC
h -t 1.028275358 -s 1 -d -1 -p AODV -e 102 -c 2 -a 0 -i 0 -k MAC
r -t 1.029092023 -s 2 -d -1 -p AODV -e 44 -c 2 -a 0 -i 0 -k MAC
r -t 1.029092103 -s 10 -d -1 -p AODV -e 44 -c 2 -a 0 -i 0 -k MAC
r -t 1.029092560 -s 0 -d -1 -p AODV -e 44 -c 2 -a 0 -i 0 -k MAC
r -t 1.029117023 -s 2 -d -1 -p AODV -e 44 -c 2 -a 0 -i 0 -k RTR
r -t 1.029117103 -s 10 -d -1 -p AODV -e 44 -c 2 -a 0 -i 0 -k RTR
r -t 1.029117560 -s 0 -d -1 -p AODV -e 44 -c 2 -a 0 -i 0 -k RTR
+ -t 1.069432572 -s 9 -d -1 -p AODV -e 44 -c 2 -a 0 -i 0 -k RTR 
- -t 1.069432572 -s 9 -d -1 -p AODV -e 44 -c 2 -a 0 -i 0 -k RTR
h -t 1.069432572 -s 9 -d -1 -p AODV -e 44 -c 2 -a 0 -i 0 -k RTR
+ -t 1.069847572 -s 9 -d -1 -p AODV -e 102 -c 2 -a 0 -i 0 -k MAC 
- -t 1.069847572 -s 9 -d -1 -p AODV -e 102 -c 2 -a 0 -i 0 -k MAC
h -t 1.069847572 -s 9 -d -1 -p AODV -e 102 -c 2 -a 0 -i 0 -k MAC
+ -t 1.070033830 -s 14 -d -1 -p AODV -e 44 -c 2 -a 0 -i 0 -k RTR 
- -t 1.070033830 -s 14 -d -1 -p AODV -e 44 -c 2 -a 0 -i 0 -k RTR
h -t 1.070033830 -s 14 -d -1 -p AODV -e 44 -c 2 -a 0 -i 0 -k RTR
+ -t 1.070228830 -s 14 -d -1 -p AODV -e 102 -c 2 -a 0 -i 0 -k MAC 
- -t 1.070228830 -s 14 -d -1 -p AODV -e 102 -c 2 -a 0 -i 0 -k MAC
h -t 1.070228830 -s 14 -d -1 -p AODV -e 102 -c 2 -a 0 -i 0 -k MAC
r -t 1.070664317 -s 8 -d -1 -p AODV -e 44 -c 2 -a 0 -i 0 -k MAC
r -t 1.070664570 -s 7 -d -1 -p AODV -e 44 -c 2 -a 0 -i 0 -k MAC
r -t 1.070689317 -s 8 -d -1 -p AODV -e 44 -c 2 -a 0 -i 0 -k RTR
r -t 1.070689570 -s 7 -d -1 -p AODV -e 44 -c 2 -a 0 -i 0 -k RTR
r -t 1.071045496 -s 13 -d -1 -p AODV -e 44 -c 2 -a 0 -i 0 -k MAC
r -t 1.071045575 -s 5 -d -1 -p AODV -e 44 -c 2 -a 0 -i 0 -k MAC
r -t 1.071045830 -s 12 -d -1 -p AODV -e 44 -c 2 -a 0 -i 0 -k MAC
r -t 1.071046031 -s 6 -d -1 -p AODV -e 44 -c 2 -a 0 -i 0 -k MAC
r -t 1.071070496 -s 13 -d -1 -p AODV -e 44 -c 2 -a 0 -i 0 -k RTR
r -t 1.071070575 -s 5 -d -1 -p AODV -e 44 -c 2 -a 0 -i 0 -k RTR
r -t 1.071070830 -s 12 -d -1 -p AODV -e 44 -c 2 -a 0 -i 0 -k RTR
r -t 1.071071031 -s 6 -d -1 -p AODV -e 44 -c 2 -a 0 -i 0 -k RTR
+ -t 1.149577727 -s 5 -d -1 -p AODV -e 44 -c 2 -a 0 -i 0 -k RTR 
- -t 1.149577727 -s 5 -d -1 -p AODV -e 44 -c 2 -a 0 -i 0 -k RTR
h -t 1.149577727 -s 5 -d -1 -p AODV -e 44 -c 2 -a 0 -i 0 -k RTR
+ -t 1.150252727 -s 5 -d -1 -p AODV -e 102 -c 2 -a 0 -i 0 -k MAC 
- -t 1.150252727 -s 5 -d -1 -p AODV -e 102 -c 2 -a 0 -i 0 -k MAC
h -t 1.150252727 -s 5 -d -1 -p AODV -e 102 -c 2 -a 0 -i 0 -k MAC
r -t 1.151069198 -s 12 -d -1 -p AODV -e 44 -c 2 -a 0 -i 0 -k MAC
r -t 1.151069198 -s 6 -d -1 -p AODV -e 44 -c 2 -a 0 -i 0 -k MAC
r -t 1.151069472 -s 13 -d -1 -p AODV -e 44 -c 2 -a 0 -i 0 -k MAC
r -t 1.151069472 -s 14 -d -1 -p AODV -e 44 -c 2 -a 0 -i 0 -k MAC
r -t 1.151069727 -s 7 -d -1 -p AODV -e 44 -c 2 -a 0 -i 0 -k MAC
r -t 1.151069781 -s 4 -d -1 -p AODV -e 44 -c 2 -a 0 -i 0 -k MAC
r -t 1.151094198 -s 12 -d -1 -p AODV -e 44 -c 2 -a 0 -i 0 -k RTR
r -t 1.151094198 -s 6 -d -1 -p AODV -e 44 -c 2 -a 0 -i 0 -k RTR
r -t 1.151094472 -s 13 -d -1 -p AODV -e 44 -c 2 -a 0 -i 0 -k RTR
r -t 1.151094472 -s 14 -d -1 -p AODV -e 44 -c 2 -a 0 -i 0 -k RTR
r -t 1.151094727 -s 7 -d -1 -p AODV -e 44 -c 2 -a 0 -i 0 -k RTR
r -t 1.151094781 -s 4 -d -1 -p AODV -e 44 -c 2 -a 0 -i 0 -k RTR
+ -t 1.158238026 -s 7 -d -1 -p AODV -e 44 -c 2 -a 0 -i 0 -k RTR 
- -t 1.158238026 -s 7 -d -1 -p AODV -e 44 -c 2 -a 0 -i 0 -k RTR
h -t 1.158238026 -s 7 -d -1 -p AODV -e 44 -c 2 -a 0 -i 0 -k RTR
+ -t 1.158613026 -s 7 -d -1 -p AODV -e 102 -c 2 -a 0 -i 0 -k MAC 
- -t 1.158613026 -s 7 -d -1 -p AODV -e 102 -c 2 -a 0 -i 0 -k MAC
h -t 1.158613026 -s 7 -d -1 -p AODV -e 102 -c 2 -a 0 -i 0 -k MAC
r -t 1.159429771 -s 6 -d -1 -p AODV -e 44 -c 2 -a 0 -i 0 -k MAC
r -t 1.159429969 -s 13 -d -1 -p AODV -e 44 -c 2 -a 0 -i 0 -k MAC
r -t 1.159430024 -s 9 -d -1 -p AODV -e 44 -c 2 -a 0 -i 0 -k MAC
r -t 1.159430026 -s 5 -d -1 -p AODV -e 44 -c 2 -a 0 -i 0 -k MAC
r -t 1.159430228 -s 4 -d -1 -p AODV -e 44 -c 2 -a 0 -i 0 -k MAC
r -t 1.159454771 -s 6 -d -1 -p AODV -e 44 -c 2 -a 0 -i 0 -k RTR
r -t 1.159454969 -s 13 -d -1 -p AODV -e 44 -c 2 -a 0 -i 0 -k RTR
r -t 1.159455024 -s 9 -d -1 -p AODV -e 44 -c 2 -a 0 -i 0 -k RTR
r -t 1.159455026 -s 5 -d -1 -p AODV -e 44 -c 2 -a 0 -i 0 -k RTR
r -t 1.159455228 -s 4 -d -1 -p AODV -e 44 -c 2 -a 0 -i 0 -k RTR
+ -t 1.168161768 -s 11 -d -1 -p AODV -e 44 -c 2 -a 0 -i 0 -k RTR 
- -t 1.168161768 -s 11 -d -1 -p AODV -e 44 -c 2 -a 0 -i 0 -k RTR
h -t 1.168161768 -s 11 -d -1 -p AODV -e 44 -c 2 -a 0 -i 0 -k RTR
+ -t 1.168576768 -s 11 -d -1 -p AODV -e 102 -c 2 -a 0 -i 0 -k MAC 
- -t 1.168576768 -s 11 -d -1 -p AODV -e 102 -c 2 -a 0 -i 0 -k MAC
h -t 1.168576768 -s 11 -d -1 -p AODV -e 102 -c 2 -a 0 -i 0 -k MAC
r -t 1.169393242 -s 3 -d -1 -p AODV -e 44 -c 2 -a 0 -i 0 -k MAC
r -t 1.169393770 -s 2 -d -1 -p AODV -e 44 -c 2 -a 0 -i 0 -k MAC
r -t 1.169393770 -s 4 -d -1 -p AODV -e 44 -c 2 -a 0 -i 0 -k MAC
r -t 1.169418242 -s 3 -d -1 -p AODV -e 44 -c 2 -a 0 -i 0 -k RTR
r -t 1.169418770 -s 2 -d -1 -p AODV -e 44 -c 2 -a 0 -i 0 -k RTR
r -t 1.169418770 -s 4 -d -1 -p AODV -e 44 -c 2 -a 0 -i 0 -k RTR
+ -t 1.702159344 -s 6 -d -1 -p AODV -e 44 -c 2 -a 0 -i 0 -k RTR 
- -t 1.702159344 -s 6 -d -1 -p AODV -e 44 -c 2 -a 0 -i 0 -k RTR
h -t 1.702159344 -s 6 -d -1 -p AODV -e 44 -c 2 -a 0 -i 0 -k RTR
+ -t 1.702454344 -s 6 -d -1 -p AODV -e 102 -c 2 -a 0 -i 0 -k MAC 
- -t 1.702454344 -s 6 -d -1 -p AODV -e 102 -c 2 -a 0 -i 0 -k MAC
h -t 1.702454344 -s 6 -d -1 -p AODV -e 102 -c 2 -a 0 -i 0 -k MAC
r -t 1.703270815 -s 5 -d -1 -p AODV -e 44 -c 2 -a 0 -i 0 -k MAC
r -t 1.703271011 -s 4 -d -1 -p AODV -e 44 -c 2 -a 0 -i 0 -k MAC
r -t 1.703271011 -s 12 -d -1 -p AODV -e 44 -c 2 -a 0 -i 0 -k MAC
r -t 1.703271089 -s 7 -d -1 -p AODV -e 44 -c 2 -a 0 -i 0 -k MAC
r -t 1.703271344 -s 13 -d -1 -p AODV -e 44 -c 2 -a 0 -i 0 -k MAC
r -t 1.703271546 -s 14 -d -1 -p AODV -e 44 -c 2 -a 0 -i 0 -k MAC
r -t 1.703295815 -s 5 -d -1 -p AODV -e 44 -c 2 -a 0 -i 0 -k RTR
r -t 1.703296011 -s 4 -d -1 -p AODV -e 44 -c 2 -a 0 -i 0 -k RTR
r -t 1.703296011 -s 12 -d -1 -p AODV -e 44 -c 2 -a 0 -i 0 -k RTR
r -t 1.703296089 -s 7 -d -1 -p AODV -e 44 -c 2 -a 0 -i 0 -k RTR
r -t 1.703296344 -s 13 -d -1 -p AODV -e 44 -c 2 -a 0 -i 0 -k RTR
r -t 1.703296546 -s 14 -d -1 -p AODV -e 44 -c 2 -a 0 -i 0 -k RTR
+ -t 1.745731203 -s 12 -d -1 -p AODV -e 44 -c 2 -a 0 -i 0 -k RTR 
- -t 1.745731203 -s 12 -d -1 -p AODV -e 44 -c 2 -a 0 -i 0 -k RTR
h -t 1.745731203 -s 12 -d -1 -p AODV -e 44 -c 2 -a 0 -i 0 -k RTR
+ -t 1.746246203 -s 12 -d -1 -p AODV -e 102 -c 2 -a 0 -i 0 -k MAC 
- -t 1.746246203 -s 12 -d -1 -p AODV -e 102 -c 2 -a 0 -i 0 -k MAC
h -t 1.746246203 -s 12 -d -1 -p AODV -e 102 -c 2 -a 0 -i 0 -k MAC
r -t 1.747062674 -s 5 -d -1 -p AODV -e 44 -c 2 -a 0 -i 0 -k MAC
r -t 1.747062870 -s 6 -d -1 -p AODV -e 44 -c 2 -a 0 -i 0 -k MAC
r -t 1.747063146 -s 4 -d -1 -p AODV -e 44 -c 2 -a 0 -i 0 -k MAC
r -t 1.747063203 -s 14 -d -1 -p AODV -e 44 -c 2 -a 0 -i 0 -k MAC
r -t 1.747063405 -s 13 -d -1 -p AODV -e 44 -c 2 -a 0 -i 0 -k MAC
r -t 1.747087674 -s 5 -d -1 -p AODV -e 44 -c 2 -a 0 -i 0 -k RTR
r -t 1.747087870 -s 6 -d -1 -p AODV -e 44 -c 2 -a 0 -i 0 -k RTR
r -t 1.747088146 -s 4 -d -1 -p AODV -e 44 -c 2 -a 0 -i 0 -k RTR
r -t 1.747088203 -s 14 -d -1 -p AODV -e 44 -c 2 -a 0 -i 0 -k RTR
r -t 1.747088405 -s 13 -d -1 -p AODV -e 44 -c 2 -a 0 -i 0 -k RTR
+ -t 1.793808262 -s 13 -d -1 -p AODV -e 44 -c 2 -a 0 -i 0 -k RTR 
- -t 1.793808262 -s 13 -d -1 -p AODV -e 44 -c 2 -a 0 -i 0 -k RTR
h -t 1.793808262 -s 13 -d -1 -p AODV -e 44 -c 2 -a 0 -i 0 -k RTR
+ -t 1.794043262 -s 13 -d -1 -p AODV -e 102 -c 2 -a 0 -i 0 -k MAC 
- -t 1.794043262 -s 13 -d -1 -p AODV -e 102 -c 2 -a 0 -i 0 -k MAC
h -t 1.794043262 -s 13 -d -1 -p AODV -e 102 -c 2 -a 0 -i 0 -k MAC
r -t 1.794859929 -s 14 -d -1 -p AODV -e 44 -c 2 -a 0 -i 0 -k MAC
r -t 1.794860008 -s 5 -d -1 -p AODV -e 44 -c 2 -a 0 -i 0 -k MAC
r -t 1.794860205 -s 7 -d -1 -p AODV -e 44 -c 2 -a 0 -i 0 -k MAC
r -t 1.794860262 -s 6 -d -1 -p AODV -e 44 -c 2 -a 0 -i 0 -k MAC
r -t 1.794860464 -s 12 -d -1 -p AODV -e 44 -c 2 -a 0 -i 0 -k MAC
r -t 1.794884929 -s 14 -d -1 -p AODV -e 44 -c 2 -a 0 -i 0 -k RTR
r -t 1.794885008 -s 5 -d -1 -p AODV -e 44 -c 2 -a 0 -i 0 -k RTR
r -t 1.794885205 -s 7 -d -1 -p AODV -e 44 -c 2 -a 0 -i 0 -k RTR
r -t 1.794885262 -s 6 -d -1 -p AODV -e 44 -c 2 -a 0 -i 0 -k RTR
r -t 1.794885464 -s 12 -d -1 -p AODV -e 44 -c 2 -a 0 -i 0 -k RTR
+ -t 1.797683483 -s 0 -d -1 -p AODV -e 44 -c 2 -a 0 -i 0 -k RTR 
- -t 1.797683483 -s 0 -d -1 -p AODV -e 44 -c 2 -a 0 -i 0 -k RTR
h -t 1.797683483 -s 0 -d -1 -p AODV -e 44 -c 2 -a 0 -i 0 -k RTR
+ -t 1.797898483 -s 0 -d -1 -p AODV -e 102 -c 2 -a 0 -i 0 -k MAC 
- -t 1.797898483 -s 0 -d -1 -p AODV -e 102 -c 2 -a 0 -i 0 -k MAC
h -t 1.797898483 -s 0 -d -1 -p AODV -e 102 -c 2 -a 0 -i 0 -k MAC