M 0.0 nn 10 x 530 y 530 rp AODV
M 0.0 sc setdes500x500.tcl cp cbr10node.tcl seed 1.0
M 0.0 prop Propagation/TwoRayGround ant Antenna/OmniAntenna
s 0.000000000 _0_ RTR  --- 0 AODV 44 [0 0 0 0] [energy 1.000000 ei 0.000 es 0.000 et 0.000 er 0.000] ------- [0:255 -1:255 1 0] [0x1 1 [0 2] 4.000000] (HELLO)
s 0.000000000 _1_ RTR  --- 0 AODV 44 [0 0 0 0] [energy 1.000000 ei 0.000 es 0.000 et 0.000 er 0.000] ------- [1:255 -1:255 1 0] [0x1 1 [1 2] 4.000000] (HELLO)
s 0.000000000 _2_ RTR  --- 0 AODV 44 [0 0 0 0] [energy 1.000000 ei 0.000 es 0.000 et 0.000 er 0.000] ------- [2:255 -1:255 1 0] [0x1 1 [2 2] 4.000000] (HELLO)
s 0.000000000 _3_ RTR  --- 0 AODV 44 [0 0 0 0] [energy 1.000000 ei 0.000 es 0.000 et 0.000 er 0.000] ------- [3:255 -1:255 1 0] [0x1 1 [3 2] 4.000000] (HELLO)
s 0.000000000 _4_ RTR  --- 0 AODV 44 [0 0 0 0] [energy 1.000000 ei 0.000 es 0.000 et 0.000 er 0.000] ------- [4:255 -1:255 1 0] [0x1 1 [4 2] 4.000000] (HELLO)
s 0.000000000 _5_ RTR  --- 0 AODV 44 [0 0 0 0] [energy 1.000000 ei 0.000 es 0.000 et 0.000 er 0.000] ------- [5:255 -1:255 1 0] [0x1 1 [5 2] 4.000000] (HELLO)
s 0.000000000 _6_ RTR  --- 0 AODV 44 [0 0 0 0] [energy 1.000000 ei 0.000 es 0.000 et 0.000 er 0.000] ------- [6:255 -1:255 1 0] [0x1 1 [6 2] 4.000000] (HELLO)
s 0.000000000 _7_ RTR  --- 0 AODV 44 [0 0 0 0] [energy 1.000000 ei 0.000 es 0.000 et 0.000 er 0.000] ------- [7:255 -1:255 1 0] [0x1 1 [7 2] 4.000000] (HELLO)
s 0.000000000 _8_ RTR  --- 0 AODV 44 [0 0 0 0] [energy 1.000000 ei 0.000 es 0.000 et 0.000 er 0.000] ------- [8:255 -1:255 1 0] [0x1 1 [8 2] 4.000000] (HELLO)
s 0.000000000 _9_ RTR  --- 0 AODV 44 [0 0 0 0] [energy 1.000000 ei 0.000 es 0.000 et 0.000 er 0.000] ------- [9:255 -1:255 1 0] [0x1 1 [9 2] 4.000000] (HELLO)
s 0.000115000 _2_ MAC  --- 0 AODV 102 [0 ffffffff 2 800] [energy 1.000000 ei 0.000 es 0.000 et 0.000 er 0.000] ------- [2:255 -1:255 1 0] [0x1 1 [2 2] 4.000000] (HELLO)
N -t 0.000115 -n 8 -e 0.999913
N -t 0.000116 -n 3 -e 0.999913
N -t 0.000116 -n 5 -e 0.999913
N -t 0.000116 -n 0 -e 0.999913
N -t 0.000116 -n 7 -e 0.999913
N -t 0.000116 -n 6 -e 0.999913
N -t 0.000116 -n 4 -e 0.999913
s 0.000315000 _1_ MAC  --- 0 AODV 102 [0 ffffffff 1 800] [energy 1.000000 ei 0.000 es 0.000 et 0.000 er 0.000] ------- [1:255 -1:255 1 0] [0x1 1 [1 2] 4.000000] (HELLO)
N -t 0.000315 -n 9 -e 0.999903
N -t 0.000315 -n 7 -e 0.999893
D 0.000315352 _7_ MAC  COL 0 AODV 102 [0 ffffffff 2 800] [energy 0.999893 ei 0.000 es 0.000 et 0.000 er 0.000] ------- [2:255 -1:255 1 0] [0x1 1 [2 2] 4.000000] (HELLO)
N -t 0.000315 -n 6 -e 0.999893
D 0.000315356 _6_ MAC  COL 0 AODV 102 [0 ffffffff 2 800] [energy 0.999893 ei 0.000 es 0.000 et 0.000 er 0.000] ------- [2:255 -1:255 1 0] [0x1 1 [2 2] 4.000000] (HELLO)
N -t 0.000316 -n 5 -e 0.999893
D 0.000315650 _5_ MAC  COL 0 AODV 102 [0 ffffffff 2 800] [energy 0.999893 ei 0.000 es 0.000 et 0.000 er 0.000] ------- [2:255 -1:255 1 0] [0x1 1 [2 2] 4.000000] (HELLO)
N -t 0.000316 -n 3 -e 0.999893
D 0.000315736 _3_ MAC  COL 0 AODV 102 [0 ffffffff 2 800] [energy 0.999893 ei 0.000 es 0.000 et 0.000 er 0.000] ------- [2:255 -1:255 1 0] [0x1 1 [2 2] 4.000000] (HELLO)
r 0.000931259 _8_ MAC  --- 0 AODV 44 [0 ffffffff 2 800] [energy 0.999913 ei 0.000 es 0.000 et 0.000 er 0.000] ------- [2:255 -1:255 1 0] [0x1 1 [2 2] 4.000000] (HELLO)
r 0.000931961 _0_ MAC  --- 0 AODV 44 [0 ffffffff 2 800] [energy 0.999913 ei 0.000 es 0.000 et 0.000 er 0.000] ------- [2:255 -1:255 1 0] [0x1 1 [2 2] 4.000000] (HELLO)
r 0.000932180 _4_ MAC  --- 0 AODV 44 [0 ffffffff 2 800] [energy 0.999913 ei 0.000 es 0.000 et 0.000 er 0.000] ------- [2:255 -1:255 1 0] [0x1 1 [2 2] 4.000000] (HELLO)
r 0.000956259 _8_ RTR  --- 0 AODV 44 [0 ffffffff 2 800] [energy 0.999913 ei 0.000 es 0.000 et 0.000 er 0.000] ------- [2:255 -1:255 1 0] [0x1 1 [2 2] 4.000000] (HELLO)
r 0.000956961 _0_ RTR  --- 0 AODV 44 [0 ffffffff 2 800] [energy 0.999913 ei 0.000 es 0.000 et 0.000 er 0.000] ------- [2:255 -1:255 1 0] [0x1 1 [2 2] 4.000000] (HELLO)
r 0.000957180 _4_ RTR  --- 0 AODV 44 [0 ffffffff 2 800] [energy 0.999913 ei 0.000 es 0.000 et 0.000 er 0.000] ------- [2:255 -1:255 1 0] [0x1 1 [2 2] 4.000000] (HELLO)
s 0.001102180 _4_ MAC  --- 0 AODV 102 [0 ffffffff 4 800] [energy 0.999913 ei 0.000 es 0.000 et 0.000 er 0.000] ------- [4:255 -1:255 1 0] [0x1 1 [4 2] 4.000000] (HELLO)
N -t 0.001103 -n 8 -e 0.999822
N -t 0.001103 -n 2 -e 0.999317
r 0.001131109 _9_ MAC  --- 0 AODV 44 [0 ffffffff 1 800] [energy 0.999903 ei 0.000 es 0.000 et 0.000 er 0.000] ------- [1:255 -1:255 1 0] [0x1 1 [1 2] 4.000000] (HELLO)
D 0.001131352 _7_ MAC  COL 0 AODV 102 [0 ffffffff 1 800] [energy 0.999893 ei 0.000 es 0.000 et 0.000 er 0.000] ------- [1:255 -1:255 1 0] [0x1 1 [1 2] 4.000000] (HELLO)
D 0.001131356 _6_ MAC  COL 0 AODV 102 [0 ffffffff 1 800] [energy 0.999893 ei 0.000 es 0.000 et 0.000 er 0.000] ------- [1:255 -1:255 1 0] [0x1 1 [1 2] 4.000000] (HELLO)
D 0.001131650 _5_ MAC  COL 0 AODV 102 [0 ffffffff 1 800] [energy 0.999893 ei 0.000 es 0.000 et 0.000 er 0.000] ------- [1:255 -1:255 1 0] [0x1 1 [1 2] 4.000000] (HELLO)
D 0.001131736 _3_ MAC  COL 0 AODV 102 [0 ffffffff 1 800] [energy 0.999893 ei 0.000 es 0.000 et 0.000 er 0.000] ------- [1:255 -1:255 1 0] [0x1 1 [1 2] 4.000000] (HELLO)
r 0.001156109 _9_ RTR  --- 0 AODV 44 [0 ffffffff 1 800] [energy 0.999903 ei 0.000 es 0.000 et 0.000 er 0.000] ------- [1:255 -1:255 1 0] [0x1 1 [1 2] 4.000000] (HELLO)
s 0.001201961 _0_ MAC  --- 0 AODV 102 [0 ffffffff 0 800] [energy 0.999913 ei 0.000 es 0.000 et 0.000 er 0.000] ------- [0:255 -1:255 1 0] [0x1 1 [0 2] 4.000000] (HELLO)
N -t 0.001203 -n 2 -e 0.999307
D 0.001202923 _2_ MAC  COL 0 AODV 102 [0 ffffffff 4 800] [energy 0.999307 ei 0.000 es 0.000 et 0.001 er 0.000] ------- [4:255 -1:255 1 0] [0x1 1 [4 2] 4.000000] (HELLO)
N -t 0.001203 -n 3 -e 0.999807
N -t 0.001203 -n 5 -e 0.999807
N -t 0.001203 -n 6 -e 0.999807
N -t 0.001203 -n 8 -e 0.999812
D 0.001203176 _8_ MAC  COL 0 AODV 102 [0 ffffffff 4 800] [energy 0.999812 ei 0.000 es 0.000 et 0.000 er 0.000] ------- [4:255 -1:255 1 0] [0x1 1 [4 2] 4.000000] (HELLO)
N -t 0.001203 -n 7 -e 0.999807
s 0.001281109 _9_ MAC  --- 0 AODV 102 [0 ffffffff 9 800] [energy 0.999903 ei 0.000 es 0.000 et 0.000 er 0.000] ------- [9:255 -1:255 1 0] [0x1 1 [9 2] 4.000000] (HELLO)
N -t 0.001281 -n 1 -e 0.999308
N -t 0.001282 -n 7 -e 0.999800
D 0.001281526 _7_ MAC  COL 0 AODV 102 [0 ffffffff 0 800] [energy 0.999800 ei 0.000 es 0.000 et 0.000 er 0.000] ------- [0:255 -1:255 1 0] [0x1 1 [0 2] 4.000000] (HELLO)
N -t 0.001282 -n 6 -e 0.999800
D 0.001281555 _6_ MAC  COL 0 AODV 102 [0 ffffffff 0 800] [energy 0.999800 ei 0.000 es 0.000 et 0.000 er 0.000] ------- [0:255 -1:255 1 0] [0x1 1 [0 2] 4.000000] (HELLO)
N -t 0.001282 -n 5 -e 0.999800
D 0.001281821 _5_ MAC  COL 0 AODV 102 [0 ffffffff 0 800] [energy 0.999800 ei 0.000 es 0.000 et 0.000 er 0.000] ------- [0:255 -1:255 1 0] [0x1 1 [0 2] 4.000000] (HELLO)
N -t 0.001282 -n 3 -e 0.999800
D 0.001281917 _3_ MAC  COL 0 AODV 102 [0 ffffffff 0 800] [energy 0.999800 ei 0.000 es 0.000 et 0.000 er 0.000] ------- [0:255 -1:255 1 0] [0x1 1 [0 2] 4.000000] (HELLO)
D 0.002018923 _2_ MAC  COL 0 AODV 102 [0 ffffffff 0 800] [energy 0.999307 ei 0.000 es 0.000 et 0.001 er 0.000] ------- [0:255 -1:255 1 0] [0x1 1 [0 2] 4.000000] (HELLO)
D 0.002019176 _8_ MAC  COL 0 AODV 102 [0 ffffffff 0 800] [energy 0.999812 ei 0.000 es 0.000 et 0.000 er 0.000] ------- [0:255 -1:255 1 0] [0x1 1 [0 2] 4.000000] (HELLO)
r 0.002097219 _1_ MAC  --- 0 AODV 44 [0 ffffffff 9 800] [energy 0.999308 ei 0.000 es 0.000 et 0.001 er 0.000] ------- [9:255 -1:255 1 0] [0x1 1 [9 2] 4.000000] (HELLO)
D 0.002097526 _7_ MAC  COL 0 AODV 102 [0 ffffffff 9 800] [energy 0.999800 ei 0.000 es 0.000 et 0.000 er 0.000] ------- [9:255 -1:255 1 0] [0x1 1 [9 2] 4.000000] (HELLO)
D 0.002097555 _6_ MAC  COL 0 AODV 102 [0 ffffffff 9 800] [energy 0.999800 ei 0.000 es 0.000 et 0.000 er 0.000] ------- [9:255 -1:255 1 0] [0x1 1 [9 2] 4.000000] (HELLO)
D 0.002097821 _5_ MAC  COL 0 AODV 102 [0 ffffffff 9 800] [energy 0.999800 ei 0.000 es 0.000 et 0.000 er 0.000] ------- [9:255 -1:255 1 0] [0x1 1 [9 2] 4.000000] (HELLO)
D 0.002097917 _3_ MAC  COL 0 AODV 102 [0 ffffffff 9 800] [energy 0.999800 ei 0.000 es 0.000 et 0.000 er 0.000] ------- [9:255 -1:255 1 0] [0x1 1 [9 2] 4.000000] (HELLO)
r 0.002122219 _1_ RTR  --- 0 AODV 44 [0 ffffffff 9 800] [energy 0.999308 ei 0.000 es 0.000 et 0.001 er 0.000] ------- [9:255 -1:255 1 0] [0x1 1 [9 2] 4.000000] (HELLO)
s 0.002631526 _7_ MAC  --- 0 AODV 102 [0 ffffffff 7 800] [energy 0.999800 ei 0.000 es 0.000 et 0.000 er 0.000] ------- [7:255 -1:255 1 0] [0x1 1 [7 2] 4.000000] (HELLO)
N -t 0.002632 -n 6 -e 0.999691
N -t 0.002632 -n 5 -e 0.999691
N -t 0.002632 -n 1 -e 0.999199
N -t 0.002632 -n 3 -e 0.999691
N -t 0.002632 -n 9 -e 0.999199
N -t 0.002633 -n 2 -e 0.999194
N -t 0.002633 -n 8 -e 0.999700
N -t 0.002633 -n 0 -e 0.999199
r 0.003447658 _6_ MAC  --- 0 AODV 44 [0 ffffffff 7 800] [energy 0.999691 ei 0.000 es 0.000 et 0.000 er 0.000] ------- [7:255 -1:255 1 0] [0x1 1 [7 2] 4.000000] (HELLO)
r 0.003447824 _5_ MAC  --- 0 AODV 44 [0 ffffffff 7 800] [energy 0.999691 ei 0.000 es 0.000 et 0.000 er 0.000] ------- [7:255 -1:255 1 0] [0x1 1 [7 2] 4.000000] (HELLO)
r 0.003447878 _1_ MAC  --- 0 AODV 44 [0 ffffffff 7 800] [energy 0.999199 ei 0.000 es 0.000 et 0.001 er 0.000] ------- [7:255 -1:255 1 0] [0x1 1 [7 2] 4.000000] (HELLO)
r 0.003447917 _3_ MAC  --- 0 AODV 44 [0 ffffffff 7 800] [energy 0.999691 ei 0.000 es 0.000 et 0.000 er 0.000] ------- [7:255 -1:255 1 0] [0x1 1 [7 2] 4.000000] (HELLO)
r 0.003447942 _9_ MAC  --- 0 AODV 44 [0 ffffffff 7 800] [energy 0.999199 ei 0.000 es 0.000 et 0.001 er 0.000] ------- [7:255 -1:255 1 0] [0x1 1 [7 2] 4.000000] (HELLO)
r 0.003448654 _2_ MAC  --- 0 AODV 44 [0 ffffffff 7 800] [energy 0.999194 ei 0.000 es 0.000 et 0.001 er 0.000] ------- [7:255 -1:255 1 0] [0x1 1 [7 2] 4.000000] (HELLO)
r 0.003448797 _8_ MAC  --- 0 AODV 44 [0 ffffffff 7 800] [energy 0.999700 ei 0.000 es 0.000 et 0.000 er 0.000] ------- [7:255 -1:255 1 0] [0x1 1 [7 2] 4.000000] (HELLO)
r 0.003448815 _0_ MAC  --- 0 AODV 44 [0 ffffffff 7 800] [energy 0.999199 ei 0.000 es 0.000 et 0.001 er 0.000] ------- [7:255 -1:255 1 0] [0x1 1 [7 2] 4.000000] (HELLO)
r 0.003472658 _6_ RTR  --- 0 AODV 44 [0 ffffffff 7 800] [energy 0.999691 ei 0.000 es 0.000 et 0.000 er 0.000] ------- [7:255 -1:255 1 0] [0x1 1 [7 2] 4.000000] (HELLO)
r 0.003472824 _5_ RTR  --- 0 AODV 44 [0 ffffffff 7 800] [energy 0.999691 ei 0.000 es 0.000 et 0.000 er 0.000] ------- [7:255 -1:255 1 0] [0x1 1 [7 2] 4.000000] (HELLO)
r 0.003472878 _1_ RTR  --- 0 AODV 44 [0 ffffffff 7 800] [energy 0.999199 ei 0.000 es 0.000 et 0.001 er 0.000] ------- [7:255 -1:255 1 0] [0x1 1 [7 2] 4.000000] (HELLO)
r 0.003472917 _3_ RTR  --- 0 AODV 44 [0 ffffffff 7 800] [energy 0.999691 ei 0.000 es 0.000 et 0.000 er 0.000] ------- [7:255 -1:255 1 0] [0x1 1 [7 2] 4.000000] (HELLO)
r 0.003472942 _9_ RTR  --- 0 AODV 44 [0 ffffffff 7 800] [energy 0.999199 ei 0.000 es 0.000 et 0.001 er 0.000] ------- [7:255 -1:255 1 0] [0x1 1 [7 2] 4.000000] (HELLO)
r 0.003473654 _2_ RTR  --- 0 AODV 44 [0 ffffffff 7 800] [energy 0.999194 ei 0.000 es 0.000 et 0.001 er 0.000] ------- [7:255 -1:255 1 0] [0x1 1 [7 2] 4.000000] (HELLO)
r 0.003473797 _8_ RTR  --- 0 AODV 44 [0 ffffffff 7 800] [energy 0.999700 ei 0.000 es 0.000 et 0.000 er 0.000] ------- [7:255 -1:255 1 0] [0x1 1 [7 2] 4.000000] (HELLO)
r 0.003473815 _0_ RTR  --- 0 AODV 44 [0 ffffffff 7 800] [energy 0.999199 ei 0.000 es 0.000 et 0.001 er 0.000] ------- [7:255 -1:255 1 0] [0x1 1 [7 2] 4.000000] (HELLO)
s 0.003577658 _6_ MAC  --- 0 AODV 102 [0 ffffffff 6 800] [energy 0.999691 ei 0.000 es 0.000 et 0.000 er 0.000] ------- [6:255 -1:255 1 0] [0x1 1 [6 2] 4.000000] (HELLO)
N -t 0.003578 -n 7 -e 0.999097
N -t 0.003578 -n 5 -e 0.999603
N -t 0.003578 -n 1 -e 0.999111
N -t 0.003578 -n 3 -e 0.999603
N -t 0.003578 -n 9 -e 0.999111
N -t 0.003579 -n 2 -e 0.999106
N -t 0.003579 -n 0 -e 0.999111
N -t 0.003579 -n 8 -e 0.999612
r 0.004393791 _7_ MAC  --- 0 AODV 44 [0 ffffffff 6 800] [energy 0.999097 ei 0.000 es 0.000 et 0.001 er 0.000] ------- [6:255 -1:255 1 0] [0x1 1 [6 2] 4.000000] (HELLO)
r 0.004393997 _5_ MAC  --- 0 AODV 44 [0 ffffffff 6 800] [energy 0.999603 ei 0.000 es 0.000 et 0.000 er 0.000] ------- [6:255 -1:255 1 0] [0x1 1 [6 2] 4.000000] (HELLO)
r 0.004394015 _1_ MAC  --- 0 AODV 44 [0 ffffffff 6 800] [energy 0.999111 ei 0.000 es 0.000 et 0.001 er 0.000] ------- [6:255 -1:255 1 0] [0x1 1 [6 2] 4.000000] (HELLO)
r 0.004394055 _3_ MAC  --- 0 AODV 44 [0 ffffffff 6 800] [energy 0.999603 ei 0.000 es 0.000 et 0.000 er 0.000] ------- [6:255 -1:255 1 0] [0x1 1 [6 2] 4.000000] (HELLO)
r 0.004394104 _9_ MAC  --- 0 AODV 44 [0 ffffffff 6 800] [energy 0.999111 ei 0.000 es 0.000 et 0.001 er 0.000] ------- [6:255 -1:255 1 0] [0x1 1 [6 2] 4.000000] (HELLO)
r 0.004394809 _2_ MAC  --- 0 AODV 44 [0 ffffffff 6 800] [energy 0.999106 ei 0.000 es 0.000 et 0.001 er 0.000] ------- [6:255 -1:255 1 0] [0x1 1 [6 2] 4.000000] (HELLO)
r 0.004394867 _0_ MAC  --- 0 AODV 44 [0 ffffffff 6 800] [energy 0.999111 ei 0.000 es 0.000 et 0.001 er 0.000] ------- [6:255 -1:255 1 0] [0x1 1 [6 2] 4.000000] (HELLO)
r 0.004394974 _8_ MAC  --- 0 AODV 44 [0 ffffffff 6 800] [energy 0.999612 ei 0.000 es 0.000 et 0.000 er 0.000] ------- [6:255 -1:255 1 0] [0x1 1 [6 2] 4.000000] (HELLO)
r 0.004418791 _7_ RTR  --- 0 AODV 44 [0 ffffffff 6 800] [energy 0.999097 ei 0.000 es 0.000 et 0.001 er 0.000] ------- [6:255 -1:255 1 0] [0x1 1 [6 2] 4.000000] (HELLO)
r 0.004418997 _5_ RTR  --- 0 AODV 44 [0 ffffffff 6 800] [energy 0.999603 ei 0.000 es 0.000 et 0.000 er 0.000] ------- [6:255 -1:255 1 0] [0x1 1 [6 2] 4.000000] (HELLO)
r 0.004419015 _1_ RTR  --- 0 AODV 44 [0 ffffffff 6 800] [energy 0.999111 ei 0.000 es 0.000 et 0.001 er 0.000] ------- [6:255 -1:255 1 0] [0x1 1 [6 2] 4.000000] (HELLO)
r 0.004419055 _3_ RTR  --- 0 AODV 44 [0 ffffffff 6 800] [energy 0.999603 ei 0.000 es 0.000 et 0.000 er 0.000] ------- [6:255 -1:255 1 0] [0x1 1 [6 2] 4.000000] (HELLO)
r 0.004419104 _9_ RTR  --- 0 AODV 44 [0 ffffffff 6 800] [energy 0.999111 ei 0.000 es 0.000 et 0.001 er 0.000] ------- [6:255 -1:255 1 0] [0x1 1 [6 2] 4.000000] (HELLO)
r 0.004419809 _2_ RTR  --- 0 AODV 44 [0 ffffffff 6 800] [energy 0.999106 ei 0.000 es 0.000 et 0.001 er 0.000] ------- [6:255 -1:255 1 0] [0x1 1 [6 2] 4.000000] (HELLO)
r 0.004419867 _0_ RTR  --- 0 AODV 44 [0 ffffffff 6 800] [energy 0.999111 ei 0.000 es 0.000 et 0.001 er 0.000] ------- [6:255 -1:255 1 0] [0x1 1 [6 2] 4.000000] (HELLO)
r 0.004419974 _8_ RTR  --- 0 AODV 44 [0 ffffffff 6 800] [energy 0.999612 ei 0.000 es 0.000 et 0.000 er 0.000] ------- [6:255 -1:255 1 0] [0x1 1 [6 2] 4.000000] (HELLO)
s 0.004504974 _8_ MAC  --- 0 AODV 102 [0 ffffffff 8 800] [energy 0.999612 ei 0.000 es 0.000 et 0.000 er 0.000] ------- [8:255 -1:255 1 0] [0x1 1 [8 2] 4.000000] (HELLO)
N -t 0.004505 -n 2 -e 0.999019
N -t 0.004506 -n 3 -e 0.999516
N -t 0.004506 -n 5 -e 0.999516
N -t 0.004506 -n 4 -e 0.999106
N -t 0.004506 -n 0 -e 0.999024
N -t 0.004506 -n 7 -e 0.999010
N -t 0.004506 -n 6 -e 0.999010
r 0.005321233 _2_ MAC  --- 0 AODV 44 [0 ffffffff 8 800] [energy 0.999019 ei 0.000 es 0.000 et 0.001 er 0.000] ------- [8:255 -1:255 1 0] [0x1 1 [8 2] 4.000000] (HELLO)
r 0.005321901 _3_ MAC  --- 0 AODV 44 [0 ffffffff 8 800] [energy 0.999516 ei 0.000 es 0.000 et 0.000 er 0.000] ------- [8:255 -1:255 1 0] [0x1 1 [8 2] 4.000000] (HELLO)
r 0.005321954 _5_ MAC  --- 0 AODV 44 [0 ffffffff 8 800] [energy 0.999516 ei 0.000 es 0.000 et 0.000 er 0.000] ------- [8:255 -1:255 1 0] [0x1 1 [8 2] 4.000000] (HELLO)
r 0.005322027 _4_ MAC  --- 0 AODV 44 [0 ffffffff 8 800] [energy 0.999106 ei 0.000 es 0.000 et 0.001 er 0.000] ------- [8:255 -1:255 1 0] [0x1 1 [8 2] 4.000000] (HELLO)
r 0.005322188 _0_ MAC  --- 0 AODV 44 [0 ffffffff 8 800] [energy 0.999024 ei 0.000 es 0.000 et 0.001 er 0.000] ------- [8:255 -1:255 1 0] [0x1 1 [8 2] 4.000000] (HELLO)
r 0.005322245 _7_ MAC  --- 0 AODV 44 [0 ffffffff 8 800] [energy 0.999010 ei 0.000 es 0.000 et 0.001 er 0.000] ------- [8:255 -1:255 1 0] [0x1 1 [8 2] 4.000000] (HELLO)
r 0.005322289 _6_ MAC  --- 0 AODV 44 [0 ffffffff 8 800] [energy 0.999010 ei 0.000 es 0.000 et 0.001 er 0.000] ------- [8:255 -1:255 1 0] [0x1 1 [8 2] 4.000000] (HELLO)
r 0.005346233 _2_ RTR  --- 0 AODV 44 [0 ffffffff 8 800] [energy 0.999019 ei 0.000 es 0.000 et 0.001 er 0.000] ------- [8:255 -1:255 1 0] [0x1 1 [8 2] 4.000000] (HELLO)
r 0.005346901 _3_ RTR  --- 0 AODV 44 [0 ffffffff 8 800] [energy 0.999516 ei 0.000 es 0.000 et 0.000 er 0.000] ------- [8:255 -1:255 1 0] [0x1 1 [8 2] 4.000000] (HELLO)
r 0.005346954 _5_ RTR  --- 0 AODV 44 [0 ffffffff 8 800] [energy 0.999516 ei 0.000 es 0.000 et 0.000 er 0.000] ------- [8:255 -1:255 1 0] [0x1 1 [8 2] 4.000000] (HELLO)
r 0.005347027 _4_ RTR  --- 0 AODV 44 [0 ffffffff 8 800] [energy 0.999106 ei 0.000 es 0.000 et 0.001 er 0.000] ------- [8:255 -1:255 1 0] [0x1 1 [8 2] 4.000000] (HELLO)
r 0.005347188 _0_ RTR  --- 0 AODV 44 [0 ffffffff 8 800] [energy 0.999024 ei 0.000 es 0.000 et 0.001 er 0.000] ------- [8:255 -1:255 1 0] [0x1 1 [8 2] 4.000000] (HELLO)
r 0.005347245 _7_ RTR  --- 0 AODV 44 [0 ffffffff 8 800] [energy 0.999010 ei 0.000 es 0.000 et 0.001 er 0.000] ------- [8:255 -1:255 1 0] [0x1 1 [8 2] 4.000000] (HELLO)
r 0.005347289 _6_ RTR  --- 0 AODV 44 [0 ffffffff 8 800] [energy 0.999010 ei 0.000 es 0.000 et 0.001 er 0.000] ------- [8:255 -1:255 1 0] [0x1 1 [8 2] 4.000000] (HELLO)
s 0.005431954 _5_ MAC  --- 0 AODV 102 [0 ffffffff 5 800] [energy 0.999516 ei 0.000 es 0.000 et 0.000 er 0.000] ------- [5:255 -1:255 1 0] [0x1 1 [5 2] 4.000000] (HELLO)
N -t 0.005432 -n 3 -e 0.999429
N -t 0.005432 -n 7 -e 0.998923
N -t 0.005432 -n 6 -e 0.998923
N -t 0.005433 -n 1 -e 0.998978
N -t 0.005433 -n 9 -e 0.998978
N -t 0.005433 -n 2 -e 0.998932
N -t 0.005433 -n 8 -e 0.998932
N -t 0.005433 -n 0 -e 0.998937
r 0.006248075 _3_ MAC  --- 0 AODV 44 [0 ffffffff 5 800] [energy 0.999429 ei 0.000 es 0.000 et 0.000 er 0.001] ------- [5:255 -1:255 1 0] [0x1 1 [5 2] 4.000000] (HELLO)
r 0.006248252 _7_ MAC  --- 0 AODV 44 [0 ffffffff 5 800] [energy 0.998923 ei 0.000 es 0.000 et 0.001 er 0.000] ------- [5:255 -1:255 1 0] [0x1 1 [5 2] 4.000000] (HELLO)
r 0.006248292 _6_ MAC  --- 0 AODV 44 [0 ffffffff 5 800] [energy 0.998923 ei 0.000 es 0.000 et 0.001 er 0.000] ------- [5:255 -1:255 1 0] [0x1 1 [5 2] 4.000000] (HELLO)
r 0.006248604 _1_ MAC  --- 0 AODV 44 [0 ffffffff 5 800] [energy 0.998978 ei 0.000 es 0.000 et 0.001 er 0.000] ------- [5:255 -1:255 1 0] [0x1 1 [5 2] 4.000000] (HELLO)
r 0.006248665 _9_ MAC  --- 0 AODV 44 [0 ffffffff 5 800] [energy 0.998978 ei 0.000 es 0.000 et 0.001 er 0.000] ------- [5:255 -1:255 1 0] [0x1 1 [5 2] 4.000000] (HELLO)
r 0.006248784 _2_ MAC  --- 0 AODV 44 [0 ffffffff 5 800] [energy 0.998932 ei 0.000 es 0.000 et 0.001 er 0.000] ------- [5:255 -1:255 1 0] [0x1 1 [5 2] 4.000000] (HELLO)
r 0.006248933 _8_ MAC  --- 0 AODV 44 [0 ffffffff 5 800] [energy 0.998932 ei 0.000 es 0.000 et 0.001 er 0.000] ------- [5:255 -1:255 1 0] [0x1 1 [5 2] 4.000000] (HELLO)
r 0.006249056 _0_ MAC  --- 0 AODV 44 [0 ffffffff 5 800] [energy 0.998937 ei 0.000 es 0.000 et 0.001 er 0.000] ------- [5:255 -1:255 1 0] [0x1 1 [5 2] 4.000000] (HELLO)
r 0.006273075 _3_ RTR  --- 0 AODV 44 [0 ffffffff 5 800] [energy 0.999429 ei 0.000 es 0.000 et 0.000 er 0.001] ------- [5:255 -1:255 1 0] [0x1 1 [5 2] 4.000000] (HELLO)
r 0.006273252 _7_ RTR  --- 0 AODV 44 [0 ffffffff 5 800] [energy 0.998923 ei 0.000 es 0.000 et 0.001 er 0.000] ------- [5:255 -1:255 1 0] [0x1 1 [5 2] 4.000000] (HELLO)
r 0.006273292 _6_ RTR  --- 0 AODV 44 [0 ffffffff 5 800] [energy 0.998923 ei 0.000 es 0.000 et 0.001 er 0.000] ------- [5:255 -1:255 1 0] [0x1 1 [5 2] 4.000000] (HELLO)
r 0.006273604 _1_ RTR  --- 0 AODV 44 [0 ffffffff 5 800] [energy 0.998978 ei 0.000 es 0.000 et 0.001 er 0.000] ------- [5:255 -1:255 1 0] [0x1 1 [5 2] 4.000000] (HELLO)
r 0.006273665 _9_ RTR  --- 0 AODV 44 [0 ffffffff 5 800] [energy 0.998978 ei 0.000 es 0.000 et 0.001 er 0.000] ------- [5:255 -1:255 1 0] [0x1 1 [5 2] 4.000000] (HELLO)
r 0.006273784 _2_ RTR  --- 0 AODV 44 [0 ffffffff 5 800] [energy 0.998932 ei 0.000 es 0.000 et 0.001 er 0.000] ------- [5:255 -1:255 1 0] [0x1 1 [5 2] 4.000000] (HELLO)
r 0.006273933 _8_ RTR  --- 0 AODV 44 [0 ffffffff 5 800] [energy 0.998932 ei 0.000 es 0.000 et 0.001 er 0.000] ------- [5:255 -1:255 1 0] [0x1 1 [5 2] 4.000000] (HELLO)
r 0.006274056 _0_ RTR  --- 0 AODV 44 [0 ffffffff 5 800] [energy 0.998937 ei 0.000 es 0.000 et 0.001 er 0.000] ------- [5:255 -1:255 1 0] [0x1 1 [5 2] 4.000000] (HELLO)
s 0.006478075 _3_ MAC  --- 0 AODV 102 [0 ffffffff 3 800] [energy 0.999429 ei 0.000 es 0.000 et 0.000 er 0.001] ------- [3:255 -1:255 1 0] [0x1 1 [3 2] 4.000000] (HELLO)
N -t 0.006478 -n 5 -e 0.998830
N -t 0.006478 -n 7 -e 0.998830
N -t 0.006478 -n 6 -e 0.998830
N -t 0.006479 -n 1 -e 0.998885
N -t 0.006479 -n 2 -e 0.998839
N -t 0.006479 -n 9 -e 0.998885
N -t 0.006479 -n 8 -e 0.998839
N -t 0.006479 -n 0 -e 0.998844
r 0.007294196 _5_ MAC  --- 0 AODV 44 [0 ffffffff 3 800] [energy 0.998830 ei 0.000 es 0.000 et 0.001 er 0.001] ------- [3:255 -1:255 1 0] [0x1 1 [3 2] 4.000000] (HELLO)
r 0.007294466 _7_ MAC  --- 0 AODV 44 [0 ffffffff 3 800] [energy 0.998830 ei 0.000 es 0.000 et 0.001 er 0.001] ------- [3:255 -1:255 1 0] [0x1 1 [3 2] 4.000000] (HELLO)
r 0.007294472 _6_ MAC  --- 0 AODV 44 [0 ffffffff 3 800] [energy 0.998830 ei 0.000 es 0.000 et 0.001 er 0.001] ------- [3:255 -1:255 1 0] [0x1 1 [3 2] 4.000000] (HELLO)
r 0.007294811 _1_ MAC  --- 0 AODV 44 [0 ffffffff 3 800] [energy 0.998885 ei 0.000 es 0.000 et 0.001 er 0.000] ------- [3:255 -1:255 1 0] [0x1 1 [3 2] 4.000000] (HELLO)
r 0.007294829 _2_ MAC  --- 0 AODV 44 [0 ffffffff 3 800] [energy 0.998839 ei 0.000 es 0.000 et 0.001 er 0.000] ------- [3:255 -1:255 1 0] [0x1 1 [3 2] 4.000000] (HELLO)
r 0.007294882 _9_ MAC  --- 0 AODV 44 [0 ffffffff 3 800] [energy 0.998885 ei 0.000 es 0.000 et 0.001 er 0.000] ------- [3:255 -1:255 1 0] [0x1 1 [3 2] 4.000000] (HELLO)
r 0.007295002 _8_ MAC  --- 0 AODV 44 [0 ffffffff 3 800] [energy 0.998839 ei 0.000 es 0.000 et 0.001 er 0.000] ------- [3:255 -1:255 1 0] [0x1 1 [3 2] 4.000000] (HELLO)
r 0.007295058 _0_ MAC  --- 0 AODV 44 [0 ffffffff 3 800] [energy 0.998844 ei 0.000 es 0.000 et 0.001 er 0.000] ------- [3:255 -1:255 1 0] [0x1 1 [3 2] 4.000000] (HELLO)
r 0.007319196 _5_ RTR  --- 0 AODV 44 [0 ffffffff 3 800] [energy 0.998830 ei 0.000 es 0.000 et 0.001 er 0.001] ------- [3:255 -1:255 1 0] [0x1 1 [3 2] 4.000000] (HELLO)
r 0.007319466 _7_ RTR  --- 0 AODV 44 [0 ffffffff 3 800] [energy 0.998830 ei 0.000 es 0.000 et 0.001 er 0.001] ------- [3:255 -1:255 1 0] [0x1 1 [3 2] 4.000000] (HELLO)
r 0.007319472 _6_ RTR  --- 0 AODV 44 [0 ffffffff 3 800] [energy 0.998830 ei 0.000 es 0.000 et 0.001 er 0.001] ------- [3:255 -1:255 1 0] [0x1 1 [3 2] 4.000000] (HELLO)
r 0.007319811 _1_ RTR  --- 0 AODV 44 [0 ffffffff 3 800] [energy 0.998885 ei 0.000 es 0.000 et 0.001 er 0.000] ------- [3:255 -1:255 1 0] [0x1 1 [3 2] 4.000000] (HELLO)
r 0.007319829 _2_ RTR  --- 0 AODV 44 [0 ffffffff 3 800] [energy 0.998839 ei 0.000 es 0.000 et 0.001 er 0.000] ------- [3:255 -1:255 1 0] [0x1 1 [3 2] 4.000000] (HELLO)
r 0.007319882 _9_ RTR  --- 0 AODV 44 [0 ffffffff 3 800] [energy 0.998885 ei 0.000 es 0.000 et 0.001 er 0.000] ------- [3:255 -1:255 1 0] [0x1 1 [3 2] 4.000000] (HELLO)
r 0.007320002 _8_ RTR  --- 0 AODV 44 [0 ffffffff 3 800] [energy 0.998839 ei 0.000 es 0.000 et 0.001 er 0.000] ------- [3:255 -1:255 1 0] [0x1 1 [3 2] 4.000000] (HELLO)
r 0.007320058 _0_ RTR  --- 0 AODV 44 [0 ffffffff 3 800] [energy 0.998844 ei 0.000 es 0.000 et 0.001 er 0.000] ------- [3:255 -1:255 1 0] [0x1 1 [3 2] 4.000000] (HELLO)
s 0.750169789 _0_ RTR  --- 0 AODV 44 [0 0 0 0] [energy 0.998844 ei 0.000 es 0.000 et 0.001 er 0.000] ------- [0:255 -1:255 1 0] [0x1 1 [0 14] 4.000000] (HELLO)
s 0.750284789 _0_ MAC  --- 0 AODV 102 [0 ffffffff 0 800] [energy 0.998844 ei 0.000 es 0.000 et 0.001 er 0.000] ------- [0:255 -1:255 1 0] [0x1 1 [0 14] 4.000000] (HELLO)
N -t 0.750286 -n 2 -e 0.961608
N -t 0.750286 -n 3 -e 0.961599
N -t 0.750286 -n 5 -e 0.961599
N -t 0.750286 -n 6 -e 0.961599
N -t 0.750286 -n 8 -e 0.961608
N -t 0.750286 -n 7 -e 0.961599
r 0.751101750 _2_ MAC  --- 0 AODV 44 [0 ffffffff 0 800] [energy 0.961608 ei 0.037 es 0.000 et 0.001 er 0.001] ------- [0:255 -1:255 1 0] [0x1 1 [0 14] 4.000000] (HELLO)
r 0.751101771 _3_ MAC  --- 0 AODV 44 [0 ffffffff 0 800] [energy 0.961599 ei 0.037 es 0.000 et 0.001 er 0.001] ------- [0:255 -1:255 1 0] [0x1 1 [0 14] 4.000000] (HELLO)
r 0.751101891 _5_ MAC  --- 0 AODV 44 [0 ffffffff 0 800] [energy 0.961599 ei 0.037 es 0.000 et 0.001 er 0.001] ------- [0:255 -1:255 1 0] [0x1 1 [0 14] 4.000000] (HELLO)
r 0.751101997 _6_ MAC  --- 0 AODV 44 [0 ffffffff 0 800] [energy 0.961599 ei 0.037 es 0.000 et 0.001 er 0.001] ------- [0:255 -1:255 1 0] [0x1 1 [0 14] 4.000000] (HELLO)
r 0.751102003 _8_ MAC  --- 0 AODV 44 [0 ffffffff 0 800] [energy 0.961608 ei 0.037 es 0.000 et 0.001 er 0.001] ------- [0:255 -1:255 1 0] [0x1 1 [0 14] 4.000000] (HELLO)
r 0.751102078 _7_ MAC  --- 0 AODV 44 [0 ffffffff 0 800] [energy 0.961599 ei 0.037 es 0.000 et 0.001 er 0.001] ------- [0:255 -1:255 1 0] [0x1 1 [0 14] 4.000000] (HELLO)
r 0.751126750 _2_ RTR  --- 0 AODV 44 [0 ffffffff 0 800] [energy 0.961608 ei 0.037 es 0.000 et 0.001 er 0.001] ------- [0:255 -1:255 1 0] [0x1 1 [0 14] 4.000000] (HELLO)
r 0.751126771 _3_ RTR  --- 0 AODV 44 [0 ffffffff 0 800] [energy 0.961599 ei 0.037 es 0.000 et 0.001 er 0.001] ------- [0:255 -1:255 1 0] [0x1 1 [0 14] 4.000000] (HELLO)
r 0.751126891 _5_ RTR  --- 0 AODV 44 [0 ffffffff 0 800] [energy 0.961599 ei 0.037 es 0.000 et 0.001 er 0.001] ------- [0:255 -1:255 1 0] [0x1 1 [0 14] 4.000000] (HELLO)
r 0.751126997 _6_ RTR  --- 0 AODV 44 [0 ffffffff 0 800] [energy 0.961599 ei 0.037 es 0.000 et 0.001 er 0.001] ------- [0:255 -1:255 1 0] [0x1 1 [0 14] 4.000000] (HELLO)
r 0.751127003 _8_ RTR  --- 0 AODV 44 [0 ffffffff 0 800] [energy 0.961608 ei 0.037 es 0.000 et 0.001 er 0.001] ------- [0:255 -1:255 1 0] [0x1 1 [0 14] 4.000000] (HELLO)
r 0.751127078 _7_ RTR  --- 0 AODV 44 [0 ffffffff 0 800] [energy 0.961599 ei 0.037 es 0.000 et 0.001 er 0.001] ------- [0:255 -1:255 1 0] [0x1 1 [0 14] 4.000000] (HELLO)
s 0.757102330 _2_ RTR  --- 0 AODV 44 [0 0 0 0] [energy 0.961608 ei 0.037 es 0.000 et 0.001 er 0.001] ------- [2:255 -1:255 1 0] [0x1 1 [2 14] 4.000000] (HELLO)
s 0.757317330 _2_ MAC  --- 0 AODV 102 [0 ffffffff 2 800] [energy 0.961608 ei 0.037 es 0.000 et 0.001 er 0.001] ------- [2:255 -1:255 1 0] [0x1 1 [2 14] 4.000000] (HELLO)
N -t 0.757318 -n 8 -e 0.961215
N -t 0.757318 -n 3 -e 0.961206
N -t 0.757318 -n 5 -e 0.961206
N -t 0.757318 -n 0 -e 0.960714
N -t 0.757318 -n 7 -e 0.961206
N -t 0.757318 -n 6 -e 0.961206
N -t 0.757319 -n 4 -e 0.961424
r 0.758133589 _8_ MAC  --- 0 AODV 44 [0 ffffffff 2 800] [energy 0.961215 ei 0.038 es 0.000 et 0.001 er 0.001] ------- [2:255 -1:255 1 0] [0x1 1 [2 14] 4.000000] (HELLO)
r 0.758134084 _3_ MAC  --- 0 AODV 44 [0 ffffffff 2 800] [energy 0.961206 ei 0.038 es 0.000 et 0.001 er 0.001] ------- [2:255 -1:255 1 0] [0x1 1 [2 14] 4.000000] (HELLO)
r 0.758134160 _5_ MAC  --- 0 AODV 44 [0 ffffffff 2 800] [energy 0.961206 ei 0.038 es 0.000 et 0.001 er 0.001] ------- [2:255 -1:255 1 0] [0x1 1 [2 14] 4.000000] (HELLO)
r 0.758134292 _0_ MAC  --- 0 AODV 44 [0 ffffffff 2 800] [energy 0.960714 ei 0.038 es 0.000 et 0.001 er 0.001] ------- [2:255 -1:255 1 0] [0x1 1 [2 14] 4.000000] (HELLO)
r 0.758134458 _7_ MAC  --- 0 AODV 44 [0 ffffffff 2 800] [energy 0.961206 ei 0.038 es 0.000 et 0.001 er 0.001] ------- [2:255 -1:255 1 0] [0x1 1 [2 14] 4.000000] (HELLO)
r 0.758134481 _6_ MAC  --- 0 AODV 44 [0 ffffffff 2 800] [energy 0.961206 ei 0.038 es 0.000 et 0.001 er 0.001] ------- [2:255 -1:255 1 0] [0x1 1 [2 14] 4.000000] (HELLO)
r 0.758134511 _4_ MAC  --- 0 AODV 44 [0 ffffffff 2 800] [energy 0.961424 ei 0.038 es 0.000 et 0.001 er 0.000] ------- [2:255 -1:255 1 0] [0x1 1 [2 14] 4.000000] (HELLO)
r 0.758158589 _8_ RTR  --- 0 AODV 44 [0 ffffffff 2 800] [energy 0.961215 ei 0.038 es 0.000 et 0.001 er 0.001] ------- [2:255 -1:255 1 0] [0x1 1 [2 14] 4.000000] (HELLO)
r 0.758159084 _3_ RTR  --- 0 AODV 44 [0 ffffffff 2 800] [energy 0.961206 ei 0.038 es 0.000 et 0.001 er 0.001] ------- [2:255 -1:255 1 0] [0x1 1 [2 14] 4.000000] (HELLO)
r 0.758159160 _5_ RTR  --- 0 AODV 44 [0 ffffffff 2 800] [energy 0.961206 ei 0.038 es 0.000 et 0.001 er 0.001] ------- [2:255 -1:255 1 0] [0x1 1 [2 14] 4.000000] (HELLO)
r 0.758159292 _0_ RTR  --- 0 AODV 44 [0 ffffffff 2 800] [energy 0.960714 ei 0.038 es 0.000 et 0.001 er 0.001] ------- [2:255 -1:255 1 0] [0x1 1 [2 14] 4.000000] (HELLO)
r 0.758159458 _7_ RTR  --- 0 AODV 44 [0 ffffffff 2 800] [energy 0.961206 ei 0.038 es 0.000 et 0.001 er 0.001] ------- [2:255 -1:255 1 0] [0x1 1 [2 14] 4.000000] (HELLO)
r 0.758159481 _6_ RTR  --- 0 AODV 44 [0 ffffffff 2 800] [energy 0.961206 ei 0.038 es 0.000 et 0.001 er 0.001] ------- [2:255 -1:255 1 0] [0x1 1 [2 14] 4.000000] (HELLO)
r 0.758159511 _4_ RTR  --- 0 AODV 44 [0 ffffffff 2 800] [energy 0.961424 ei 0.038 es 0.000 et 0.001 er 0.000] ------- [2:255 -1:255 1 0] [0x1 1 [2 14] 4.000000] (HELLO)
s 0.794061336 _3_ RTR  --- 0 AODV 44 [0 0 0 0] [energy 0.961206 ei 0.038 es 0.000 et 0.001 er 0.001] ------- [3:255 -1:255 1 0] [0x1 1 [3 14] 4.000000] (HELLO)
s 0.794336336 _3_ MAC  --- 0 AODV 102 [0 ffffffff 3 800] [energy 0.961206 ei 0.038 es 0.000 et 0.001 er 0.001] ------- [3:255 -1:255 1 0] [0x1 1 [3 14] 4.000000] (HELLO)
N -t 0.794336 -n 5 -e 0.959315
N -t 0.794337 -n 7 -e 0.959315
N -t 0.794337 -n 6 -e 0.959315
N -t 0.794337 -n 1 -e 0.959451
N -t 0.794337 -n 2 -e 0.958818
N -t 0.794337 -n 9 -e 0.959451
N -t 0.794337 -n 8 -e 0.959323
N -t 0.794337 -n 0 -e 0.958822
r 0.795152457 _5_ MAC  --- 0 AODV 44 [0 ffffffff 3 800] [energy 0.959315 ei 0.039 es 0.000 et 0.001 er 0.001] ------- [3:255 -1:255 1 0] [0x1 1 [3 14] 4.000000] (HELLO)
r 0.795152727 _7_ MAC  --- 0 AODV 44 [0 ffffffff 3 800] [energy 0.959315 ei 0.039 es 0.000 et 0.001 er 0.001] ------- [3:255 -1:255 1 0] [0x1 1 [3 14] 4.000000] (HELLO)