M 0.0 nn 5 x 530 y 530 rp AODV
M 0.0 sc setdes500x500.tcl cp cbr5node.tcl seed 1.0
M 0.0 prop Propagation/TwoRayGround ant Antenna/OmniAntenna
M 0.00000 0 (336.71, 360.83, 0.00), (206.24, 435.35), 18.03
M 0.00000 1 (29.41, 14.59, 0.00), (67.35, 399.51), 15.80
M 0.00000 2 (71.90, 457.20, 0.00), (77.99, 27.25), 17.09
s 2.556838879 _3_ AGT  --- 0 cbr 512 [0 0 0 0] [energy 5.000000 ei 0.000 es 0.000 et 0.000 er 0.000] ------- [3:0 4:0 32 0] [0] 0 0
r 2.556838879 _3_ RTR  --- 0 cbr 512 [0 0 0 0] [energy 5.000000 ei 0.000 es 0.000 et 0.000 er 0.000] ------- [3:0 4:0 32 0] [0] 0 0
s 2.556838879 _3_ RTR  --- 0 AODV 52 [0 0 0 0] [energy 5.000000 ei 0.000 es 0.000 et 0.000 er 0.000] ------- [3:255 -1:255 30 0] [0x2 1 1 [4 0] [3 4]] (REQUEST)
s 2.556953879 _3_ MAC  --- 0 AODV 110 [0 ffffffff 3 800] [energy 5.000000 ei 0.000 es 0.000 et 0.000 er 0.000] ------- [3:255 -1:255 30 0] [0x2 1 1 [4 0] [3 4]] (REQUEST)
s 2.656906794 _3_ AGT  --- 1 cbr 512 [0 0 0 0] [energy 4.871862 ei 0.128 es 0.000 et 0.000 er 0.000] ------- [3:0 4:0 32 0] [1] 0 0
r 2.656906794 _3_ RTR  --- 1 cbr 512 [0 0 0 0] [energy 4.871862 ei 0.128 es 0.000 et 0.000 er 0.000] ------- [3:0 4:0 32 0] [1] 0 0
s 2.774531328 _3_ AGT  --- 2 cbr 512 [0 0 0 0] [energy 4.871862 ei 0.128 es 0.000 et 0.000 er 0.000] ------- [3:0 4:0 32 0] [2] 0 0
r 2.774531328 _3_ RTR  --- 2 cbr 512 [0 0 0 0] [energy 4.871862 ei 0.128 es 0.000 et 0.000 er 0.000] ------- [3:0 4:0 32 0] [2] 0 0
s 2.962766005 _3_ AGT  --- 3 cbr 512 [0 0 0 0] [energy 4.871862 ei 0.128 es 0.000 et 0.000 er 0.000] ------- [3:0 4:0 32 0] [3] 0 0
r 2.962766005 _3_ RTR  --- 3 cbr 512 [0 0 0 0] [energy 4.871862 ei 0.128 es 0.000 et 0.000 er 0.000] ------- [3:0 4:0 32 0] [3] 0 0
s 3.222597096 _3_ AGT  --- 4 cbr 512 [0 0 0 0] [energy 4.871862 ei 0.128 es 0.000 et 0.000 er 0.000] ------- [3:0 4:0 32 0] [4] 0 0
r 3.222597096 _3_ RTR  --- 4 cbr 512 [0 0 0 0] [energy 4.871862 ei 0.128 es 0.000 et 0.000 er 0.000] ------- [3:0 4:0 32 0] [4] 0 0
s 3.385189450 _3_ AGT  --- 5 cbr 512 [0 0 0 0] [energy 4.871862 ei 0.128 es 0.000 et 0.000 er 0.000] ------- [3:0 4:0 32 0] [5] 0 0
r 3.385189450 _3_ RTR  --- 5 cbr 512 [0 0 0 0] [energy 4.871862 ei 0.128 es 0.000 et 0.000 er 0.000] ------- [3:0 4:0 32 0] [5] 0 0
s 3.648484660 _3_ AGT  --- 6 cbr 512 [0 0 0 0] [energy 4.871862 ei 0.128 es 0.000 et 0.000 er 0.000] ------- [3:0 4:0 32 0] [6] 0 0
r 3.648484660 _3_ RTR  --- 6 cbr 512 [0 0 0 0] [energy 4.871862 ei 0.128 es 0.000 et 0.000 er 0.000] ------- [3:0 4:0 32 0] [6] 0 0
s 3.795405010 _3_ AGT  --- 7 cbr 512 [0 0 0 0] [energy 4.871862 ei 0.128 es 0.000 et 0.000 er 0.000] ------- [3:0 4:0 32 0] [7] 0 0
r 3.795405010 _3_ RTR  --- 7 cbr 512 [0 0 0 0] [energy 4.871862 ei 0.128 es 0.000 et 0.000 er 0.000] ------- [3:0 4:0 32 0] [7] 0 0
s 4.023178039 _3_ AGT  --- 8 cbr 512 [0 0 0 0] [energy 4.871862 ei 0.128 es 0.000 et 0.000 er 0.000] ------- [3:0 4:0 32 0] [8] 0 0
r 4.023178039 _3_ RTR  --- 8 cbr 512 [0 0 0 0] [energy 4.871862 ei 0.128 es 0.000 et 0.000 er 0.000] ------- [3:0 4:0 32 0] [8] 0 0
s 4.184993851 _3_ AGT  --- 9 cbr 512 [0 0 0 0] [energy 4.871862 ei 0.128 es 0.000 et 0.000 er 0.000] ------- [3:0 4:0 32 0] [9] 0 0
r 4.184993851 _3_ RTR  --- 9 cbr 512 [0 0 0 0] [energy 4.871862 ei 0.128 es 0.000 et 0.000 er 0.000] ------- [3:0 4:0 32 0] [9] 0 0
s 4.452258558 _3_ AGT  --- 10 cbr 512 [0 0 0 0] [energy 4.871862 ei 0.128 es 0.000 et 0.000 er 0.000] ------- [3:0 4:0 32 0] [10] 0 0
r 4.452258558 _3_ RTR  --- 10 cbr 512 [0 0 0 0] [energy 4.871862 ei 0.128 es 0.000 et 0.000 er 0.000] ------- [3:0 4:0 32 0] [10] 0 0
s 4.452258558 _3_ RTR  --- 0 AODV 52 [0 0 0 0] [energy 4.871862 ei 0.128 es 0.000 et 0.000 er 0.000] ------- [3:255 -1:255 30 0] [0x2 1 2 [4 0] [3 6]] (REQUEST)
s 4.452873558 _3_ MAC  --- 0 AODV 110 [0 ffffffff 3 800] [energy 4.871862 ei 0.128 es 0.000 et 0.000 er 0.000] ------- [3:255 -1:255 30 0] [0x2 1 2 [4 0] [3 6]] (REQUEST)
s 4.585087639 _3_ AGT  --- 11 cbr 512 [0 0 0 0] [energy 4.776820 ei 0.223 es 0.000 et 0.001 er 0.000] ------- [3:0 4:0 32 0] [11] 0 0
r 4.585087639 _3_ RTR  --- 11 cbr 512 [0 0 0 0] [energy 4.776820 ei 0.223 es 0.000 et 0.001 er 0.000] ------- [3:0 4:0 32 0] [11] 0 0
s 4.707849289 _3_ AGT  --- 12 cbr 512 [0 0 0 0] [energy 4.776820 ei 0.223 es 0.000 et 0.001 er 0.000] ------- [3:0 4:0 32 0] [12] 0 0
r 4.707849289 _3_ RTR  --- 12 cbr 512 [0 0 0 0] [energy 4.776820 ei 0.223 es 0.000 et 0.001 er 0.000] ------- [3:0 4:0 32 0] [12] 0 0
s 4.979794829 _3_ AGT  --- 13 cbr 512 [0 0 0 0] [energy 4.776820 ei 0.223 es 0.000 et 0.001 er 0.000] ------- [3:0 4:0 32 0] [13] 0 0
r 4.979794829 _3_ RTR  --- 13 cbr 512 [0 0 0 0] [energy 4.776820 ei 0.223 es 0.000 et 0.001 er 0.000] ------- [3:0 4:0 32 0] [13] 0 0
s 5.164526176 _3_ AGT  --- 14 cbr 512 [0 0 0 0] [energy 4.776820 ei 0.223 es 0.000 et 0.001 er 0.000] ------- [3:0 4:0 32 0] [14] 0 0
r 5.164526176 _3_ RTR  --- 14 cbr 512 [0 0 0 0] [energy 4.776820 ei 0.223 es 0.000 et 0.001 er 0.000] ------- [3:0 4:0 32 0] [14] 0 0
s 5.299487227 _3_ AGT  --- 15 cbr 512 [0 0 0 0] [energy 4.776820 ei 0.223 es 0.000 et 0.001 er 0.000] ------- [3:0 4:0 32 0] [15] 0 0
r 5.299487227 _3_ RTR  --- 15 cbr 512 [0 0 0 0] [energy 4.776820 ei 0.223 es 0.000 et 0.001 er 0.000] ------- [3:0 4:0 32 0] [15] 0 0
s 5.418314998 _3_ AGT  --- 16 cbr 512 [0 0 0 0] [energy 4.776820 ei 0.223 es 0.000 et 0.001 er 0.000] ------- [3:0 4:0 32 0] [16] 0 0
r 5.418314998 _3_ RTR  --- 16 cbr 512 [0 0 0 0] [energy 4.776820 ei 0.223 es 0.000 et 0.001 er 0.000] ------- [3:0 4:0 32 0] [16] 0 0
s 5.679720708 _3_ AGT  --- 17 cbr 512 [0 0 0 0] [energy 4.776820 ei 0.223 es 0.000 et 0.001 er 0.000] ------- [3:0 4:0 32 0] [17] 0 0
r 5.679720708 _3_ RTR  --- 17 cbr 512 [0 0 0 0] [energy 4.776820 ei 0.223 es 0.000 et 0.001 er 0.000] ------- [3:0 4:0 32 0] [17] 0 0
s 5.849468913 _3_ AGT  --- 18 cbr 512 [0 0 0 0] [energy 4.776820 ei 0.223 es 0.000 et 0.001 er 0.000] ------- [3:0 4:0 32 0] [18] 0 0
r 5.849468913 _3_ RTR  --- 18 cbr 512 [0 0 0 0] [energy 4.776820 ei 0.223 es 0.000 et 0.001 er 0.000] ------- [3:0 4:0 32 0] [18] 0 0
s 6.001086503 _3_ AGT  --- 19 cbr 512 [0 0 0 0] [energy 4.776820 ei 0.223 es 0.000 et 0.001 er 0.000] ------- [3:0 4:0 32 0] [19] 0 0
r 6.001086503 _3_ RTR  --- 19 cbr 512 [0 0 0 0] [energy 4.776820 ei 0.223 es 0.000 et 0.001 er 0.000] ------- [3:0 4:0 32 0] [19] 0 0
s 6.182823638 _3_ AGT  --- 20 cbr 512 [0 0 0 0] [energy 4.776820 ei 0.223 es 0.000 et 0.001 er 0.000] ------- [3:0 4:0 32 0] [20] 0 0
r 6.182823638 _3_ RTR  --- 20 cbr 512 [0 0 0 0] [energy 4.776820 ei 0.223 es 0.000 et 0.001 er 0.000] ------- [3:0 4:0 32 0] [20] 0 0
s 6.386553397 _3_ AGT  --- 21 cbr 512 [0 0 0 0] [energy 4.776820 ei 0.223 es 0.000 et 0.001 er 0.000] ------- [3:0 4:0 32 0] [21] 0 0
r 6.386553397 _3_ RTR  --- 21 cbr 512 [0 0 0 0] [energy 4.776820 ei 0.223 es 0.000 et 0.001 er 0.000] ------- [3:0 4:0 32 0] [21] 0 0
s 6.579776585 _3_ AGT  --- 22 cbr 512 [0 0 0 0] [energy 4.776820 ei 0.223 es 0.000 et 0.001 er 0.000] ------- [3:0 4:0 32 0] [22] 0 0
r 6.579776585 _3_ RTR  --- 22 cbr 512 [0 0 0 0] [energy 4.776820 ei 0.223 es 0.000 et 0.001 er 0.000] ------- [3:0 4:0 32 0] [22] 0 0
s 6.818237951 _3_ AGT  --- 23 cbr 512 [0 0 0 0] [energy 4.776820 ei 0.223 es 0.000 et 0.001 er 0.000] ------- [3:0 4:0 32 0] [23] 0 0
r 6.818237951 _3_ RTR  --- 23 cbr 512 [0 0 0 0] [energy 4.776820 ei 0.223 es 0.000 et 0.001 er 0.000] ------- [3:0 4:0 32 0] [23] 0 0
s 7.090651407 _3_ AGT  --- 24 cbr 512 [0 0 0 0] [energy 4.776820 ei 0.223 es 0.000 et 0.001 er 0.000] ------- [3:0 4:0 32 0] [24] 0 0
r 7.090651407 _3_ RTR  --- 24 cbr 512 [0 0 0 0] [energy 4.776820 ei 0.223 es 0.000 et 0.001 er 0.000] ------- [3:0 4:0 32 0] [24] 0 0
s 7.358616448 _3_ AGT  --- 25 cbr 512 [0 0 0 0] [energy 4.776820 ei 0.223 es 0.000 et 0.001 er 0.000] ------- [3:0 4:0 32 0] [25] 0 0
r 7.358616448 _3_ RTR  --- 25 cbr 512 [0 0 0 0] [energy 4.776820 ei 0.223 es 0.000 et 0.001 er 0.000] ------- [3:0 4:0 32 0] [25] 0 0
s 7.502048340 _3_ AGT  --- 26 cbr 512 [0 0 0 0] [energy 4.776820 ei 0.223 es 0.000 et 0.001 er 0.000] ------- [3:0 4:0 32 0] [26] 0 0
r 7.502048340 _3_ RTR  --- 26 cbr 512 [0 0 0 0] [energy 4.776820 ei 0.223 es 0.000 et 0.001 er 0.000] ------- [3:0 4:0 32 0] [26] 0 0
s 7.650293465 _3_ AGT  --- 27 cbr 512 [0 0 0 0] [energy 4.776820 ei 0.223 es 0.000 et 0.001 er 0.000] ------- [3:0 4:0 32 0] [27] 0 0
r 7.650293465 _3_ RTR  --- 27 cbr 512 [0 0 0 0] [energy 4.776820 ei 0.223 es 0.000 et 0.001 er 0.000] ------- [3:0 4:0 32 0] [27] 0 0
s 7.920514776 _3_ AGT  --- 28 cbr 512 [0 0 0 0] [energy 4.776820 ei 0.223 es 0.000 et 0.001 er 0.000] ------- [3:0 4:0 32 0] [28] 0 0
r 7.920514776 _3_ RTR  --- 28 cbr 512 [0 0 0 0] [energy 4.776820 ei 0.223 es 0.000 et 0.001 er 0.000] ------- [3:0 4:0 32 0] [28] 0 0
s 8.155984564 _3_ AGT  --- 29 cbr 512 [0 0 0 0] [energy 4.776820 ei 0.223 es 0.000 et 0.001 er 0.000] ------- [3:0 4:0 32 0] [29] 0 0
r 8.155984564 _3_ RTR  --- 29 cbr 512 [0 0 0 0] [energy 4.776820 ei 0.223 es 0.000 et 0.001 er 0.000] ------- [3:0 4:0 32 0] [29] 0 0
s 8.155984564 _3_ RTR  --- 0 AODV 52 [0 0 0 0] [energy 4.776820 ei 0.223 es 0.000 et 0.001 er 0.000] ------- [3:255 -1:255 30 0] [0x2 1 3 [4 0] [3 8]] (REQUEST)
s 8.156199564 _3_ MAC  --- 0 AODV 110 [0 ffffffff 3 800] [energy 4.776820 ei 0.223 es 0.000 et 0.001 er 0.000] ------- [3:255 -1:255 30 0] [0x2 1 3 [4 0] [3 8]] (REQUEST)
M 8.33441 0 (206.24, 435.35, 0.00), (206.24, 435.35), 0.00
s 8.408430943 _3_ AGT  --- 30 cbr 512 [0 0 0 0] [energy 4.591407 ei 0.408 es 0.000 et 0.001 er 0.000] ------- [3:0 4:0 32 0] [30] 0 0
r 8.408430943 _3_ RTR  --- 30 cbr 512 [0 0 0 0] [energy 4.591407 ei 0.408 es 0.000 et 0.001 er 0.000] ------- [3:0 4:0 32 0] [30] 0 0
s 8.530270637 _3_ AGT  --- 31 cbr 512 [0 0 0 0] [energy 4.591407 ei 0.408 es 0.000 et 0.001 er 0.000] ------- [3:0 4:0 32 0] [31] 0 0
r 8.530270637 _3_ RTR  --- 31 cbr 512 [0 0 0 0] [energy 4.591407 ei 0.408 es 0.000 et 0.001 er 0.000] ------- [3:0 4:0 32 0] [31] 0 0
s 8.711112143 _3_ AGT  --- 32 cbr 512 [0 0 0 0] [energy 4.591407 ei 0.408 es 0.000 et 0.001 er 0.000] ------- [3:0 4:0 32 0] [32] 0 0
r 8.711112143 _3_ RTR  --- 32 cbr 512 [0 0 0 0] [energy 4.591407 ei 0.408 es 0.000 et 0.001 er 0.000] ------- [3:0 4:0 32 0] [32] 0 0
s 8.848585191 _3_ AGT  --- 33 cbr 512 [0 0 0 0] [energy 4.591407 ei 0.408 es 0.000 et 0.001 er 0.000] ------- [3:0 4:0 32 0] [33] 0 0
r 8.848585191 _3_ RTR  --- 33 cbr 512 [0 0 0 0] [energy 4.591407 ei 0.408 es 0.000 et 0.001 er 0.000] ------- [3:0 4:0 32 0] [33] 0 0
s 9.126073900 _3_ AGT  --- 34 cbr 512 [0 0 0 0] [energy 4.591407 ei 0.408 es 0.000 et 0.001 er 0.000] ------- [3:0 4:0 32 0] [34] 0 0
r 9.126073900 _3_ RTR  --- 34 cbr 512 [0 0 0 0] [energy 4.591407 ei 0.408 es 0.000 et 0.001 er 0.000] ------- [3:0 4:0 32 0] [34] 0 0
M 9.33441 0 (206.24, 435.35, 0.00), (278.63, 479.08), 41.96
s 9.415326891 _3_ AGT  --- 35 cbr 512 [0 0 0 0] [energy 4.591407 ei 0.408 es 0.000 et 0.001 er 0.000] ------- [3:0 4:0 32 0] [35] 0 0
r 9.415326891 _3_ RTR  --- 35 cbr 512 [0 0 0 0] [energy 4.591407 ei 0.408 es 0.000 et 0.001 er 0.000] ------- [3:0 4:0 32 0] [35] 0 0
s 9.693596455 _3_ AGT  --- 36 cbr 512 [0 0 0 0] [energy 4.591407 ei 0.408 es 0.000 et 0.001 er 0.000] ------- [3:0 4:0 32 0] [36] 0 0
r 9.693596455 _3_ RTR  --- 36 cbr 512 [0 0 0 0] [energy 4.591407 ei 0.408 es 0.000 et 0.001 er 0.000] ------- [3:0 4:0 32 0] [36] 0 0
s 9.816002719 _3_ AGT  --- 37 cbr 512 [0 0 0 0] [energy 4.591407 ei 0.408 es 0.000 et 0.001 er 0.000] ------- [3:0 4:0 32 0] [37] 0 0
r 9.816002719 _3_ RTR  --- 37 cbr 512 [0 0 0 0] [energy 4.591407 ei 0.408 es 0.000 et 0.001 er 0.000] ------- [3:0 4:0 32 0] [37] 0 0
s 9.927683244 _3_ AGT  --- 38 cbr 512 [0 0 0 0] [energy 4.591407 ei 0.408 es 0.000 et 0.001 er 0.000] ------- [3:0 4:0 32 0] [38] 0 0
r 9.927683244 _3_ RTR  --- 38 cbr 512 [0 0 0 0] [energy 4.591407 ei 0.408 es 0.000 et 0.001 er 0.000] ------- [3:0 4:0 32 0] [38] 0 0
s 10.029844912 _3_ AGT  --- 39 cbr 512 [0 0 0 0] [energy 4.591407 ei 0.408 es 0.000 et 0.001 er 0.000] ------- [3:0 4:0 32 0] [39] 0 0
r 10.029844912 _3_ RTR  --- 39 cbr 512 [0 0 0 0] [energy 4.591407 ei 0.408 es 0.000 et 0.001 er 0.000] ------- [3:0 4:0 32 0] [39] 0 0
s 10.248850389 _3_ AGT  --- 40 cbr 512 [0 0 0 0] [energy 4.591407 ei 0.408 es 0.000 et 0.001 er 0.000] ------- [3:0 4:0 32 0] [40] 0 0
r 10.248850389 _3_ RTR  --- 40 cbr 512 [0 0 0 0] [energy 4.591407 ei 0.408 es 0.000 et 0.001 er 0.000] ------- [3:0 4:0 32 0] [40] 0 0
s 10.415982941 _3_ AGT  --- 41 cbr 512 [0 0 0 0] [energy 4.591407 ei 0.408 es 0.000 et 0.001 er 0.000] ------- [3:0 4:0 32 0] [41] 0 0
r 10.415982941 _3_ RTR  --- 41 cbr 512 [0 0 0 0] [energy 4.591407 ei 0.408 es 0.000 et 0.001 er 0.000] ------- [3:0 4:0 32 0] [41] 0 0
s 10.540603640 _3_ AGT  --- 42 cbr 512 [0 0 0 0] [energy 4.591407 ei 0.408 es 0.000 et 0.001 er 0.000] ------- [3:0 4:0 32 0] [42] 0 0
r 10.540603640 _3_ RTR  --- 42 cbr 512 [0 0 0 0] [energy 4.591407 ei 0.408 es 0.000 et 0.001 er 0.000] ------- [3:0 4:0 32 0] [42] 0 0
s 10.774328419 _3_ AGT  --- 43 cbr 512 [0 0 0 0] [energy 4.591407 ei 0.408 es 0.000 et 0.001 er 0.000] ------- [3:0 4:0 32 0] [43] 0 0
r 10.774328419 _3_ RTR  --- 43 cbr 512 [0 0 0 0] [energy 4.591407 ei 0.408 es 0.000 et 0.001 er 0.000] ------- [3:0 4:0 32 0] [43] 0 0
s 10.925727167 _3_ AGT  --- 44 cbr 512 [0 0 0 0] [energy 4.591407 ei 0.408 es 0.000 et 0.001 er 0.000] ------- [3:0 4:0 32 0] [44] 0 0
r 10.925727167 _3_ RTR  --- 44 cbr 512 [0 0 0 0] [energy 4.591407 ei 0.408 es 0.000 et 0.001 er 0.000] ------- [3:0 4:0 32 0] [44] 0 0
s 11.165461812 _3_ AGT  --- 45 cbr 512 [0 0 0 0] [energy 4.591407 ei 0.408 es 0.000 et 0.001 er 0.000] ------- [3:0 4:0 32 0] [45] 0 0
r 11.165461812 _3_ RTR  --- 45 cbr 512 [0 0 0 0] [energy 4.591407 ei 0.408 es 0.000 et 0.001 er 0.000] ------- [3:0 4:0 32 0] [45] 0 0
M 11.35025 0 (278.63, 479.08, 0.00), (278.63, 479.08), 0.00
s 11.374426205 _3_ AGT  --- 46 cbr 512 [0 0 0 0] [energy 4.591407 ei 0.408 es 0.000 et 0.001 er 0.000] ------- [3:0 4:0 32 0] [46] 0 0
r 11.374426205 _3_ RTR  --- 46 cbr 512 [0 0 0 0] [energy 4.591407 ei 0.408 es 0.000 et 0.001 er 0.000] ------- [3:0 4:0 32 0] [46] 0 0
s 11.649757340 _3_ AGT  --- 47 cbr 512 [0 0 0 0] [energy 4.591407 ei 0.408 es 0.000 et 0.001 er 0.000] ------- [3:0 4:0 32 0] [47] 0 0
r 11.649757340 _3_ RTR  --- 47 cbr 512 [0 0 0 0] [energy 4.591407 ei 0.408 es 0.000 et 0.001 er 0.000] ------- [3:0 4:0 32 0] [47] 0 0
s 11.802122169 _3_ AGT  --- 48 cbr 512 [0 0 0 0] [energy 4.591407 ei 0.408 es 0.000 et 0.001 er 0.000] ------- [3:0 4:0 32 0] [48] 0 0
r 11.802122169 _3_ RTR  --- 48 cbr 512 [0 0 0 0] [energy 4.591407 ei 0.408 es 0.000 et 0.001 er 0.000] ------- [3:0 4:0 32 0] [48] 0 0
s 12.013090104 _3_ AGT  --- 49 cbr 512 [0 0 0 0] [energy 4.591407 ei 0.408 es 0.000 et 0.001 er 0.000] ------- [3:0 4:0 32 0] [49] 0 0
r 12.013090104 _3_ RTR  --- 49 cbr 512 [0 0 0 0] [energy 4.591407 ei 0.408 es 0.000 et 0.001 er 0.000] ------- [3:0 4:0 32 0] [49] 0 0
s 12.198227560 _3_ AGT  --- 50 cbr 512 [0 0 0 0] [energy 4.591407 ei 0.408 es 0.000 et 0.001 er 0.000] ------- [3:0 4:0 32 0] [50] 0 0
r 12.198227560 _3_ RTR  --- 50 cbr 512 [0 0 0 0] [energy 4.591407 ei 0.408 es 0.000 et 0.001 er 0.000] ------- [3:0 4:0 32 0] [50] 0 0
s 12.303739054 _3_ AGT  --- 51 cbr 512 [0 0 0 0] [energy 4.591407 ei 0.408 es 0.000 et 0.001 er 0.000] ------- [3:0 4:0 32 0] [51] 0 0
r 12.303739054 _3_ RTR  --- 51 cbr 512 [0 0 0 0] [energy 4.591407 ei 0.408 es 0.000 et 0.001 er 0.000] ------- [3:0 4:0 32 0] [51] 0 0
M 12.35025 0 (278.63, 479.08, 0.00), (59.95, 461.62), 48.94
s 12.469202454 _3_ AGT  --- 52 cbr 512 [0 0 0 0] [energy 4.591407 ei 0.408 es 0.000 et 0.001 er 0.000] ------- [3:0 4:0 32 0] [52] 0 0
r 12.469202454 _3_ RTR  --- 52 cbr 512 [0 0 0 0] [energy 4.591407 ei 0.408 es 0.000 et 0.001 er 0.000] ------- [3:0 4:0 32 0] [52] 0 0
s 12.606445305 _3_ AGT  --- 53 cbr 512 [0 0 0 0] [energy 4.591407 ei 0.408 es 0.000 et 0.001 er 0.000] ------- [3:0 4:0 32 0] [53] 0 0
r 12.606445305 _3_ RTR  --- 53 cbr 512 [0 0 0 0] [energy 4.591407 ei 0.408 es 0.000 et 0.001 er 0.000] ------- [3:0 4:0 32 0] [53] 0 0
s 12.863442725 _3_ AGT  --- 54 cbr 512 [0 0 0 0] [energy 4.591407 ei 0.408 es 0.000 et 0.001 er 0.000] ------- [3:0 4:0 32 0] [54] 0 0
r 12.863442725 _3_ RTR  --- 54 cbr 512 [0 0 0 0] [energy 4.591407 ei 0.408 es 0.000 et 0.001 er 0.000] ------- [3:0 4:0 32 0] [54] 0 0
s 13.152805963 _3_ AGT  --- 55 cbr 512 [0 0 0 0] [energy 4.591407 ei 0.408 es 0.000 et 0.001 er 0.000] ------- [3:0 4:0 32 0] [55] 0 0
r 13.152805963 _3_ RTR  --- 55 cbr 512 [0 0 0 0] [energy 4.591407 ei 0.408 es 0.000 et 0.001 er 0.000] ------- [3:0 4:0 32 0] [55] 0 0
s 13.407345111 _3_ AGT  --- 56 cbr 512 [0 0 0 0] [energy 4.591407 ei 0.408 es 0.000 et 0.001 er 0.000] ------- [3:0 4:0 32 0] [56] 0 0
r 13.407345111 _3_ RTR  --- 56 cbr 512 [0 0 0 0] [energy 4.591407 ei 0.408 es 0.000 et 0.001 er 0.000] ------- [3:0 4:0 32 0] [56] 0 0
s 13.548691916 _3_ AGT  --- 57 cbr 512 [0 0 0 0] [energy 4.591407 ei 0.408 es 0.000 et 0.001 er 0.000] ------- [3:0 4:0 32 0] [57] 0 0
r 13.548691916 _3_ RTR  --- 57 cbr 512 [0 0 0 0] [energy 4.591407 ei 0.408 es 0.000 et 0.001 er 0.000] ------- [3:0 4:0 32 0] [57] 0 0
s 13.787679369 _3_ AGT  --- 58 cbr 512 [0 0 0 0] [energy 4.591407 ei 0.408 es 0.000 et 0.001 er 0.000] ------- [3:0 4:0 32 0] [58] 0 0
r 13.787679369 _3_ RTR  --- 58 cbr 512 [0 0 0 0] [energy 4.591407 ei 0.408 es 0.000 et 0.001 er 0.000] ------- [3:0 4:0 32 0] [58] 0 0
s 13.787679369 _3_ RTR  --- 0 AODV 52 [0 0 0 0] [energy 4.591407 ei 0.408 es 0.000 et 0.001 er 0.000] ------- [3:255 -1:255 30 0] [0x2 1 4 [4 0] [3 10]] (REQUEST)
s 13.787874369 _3_ MAC  --- 0 AODV 110 [0 ffffffff 3 800] [energy 4.591407 ei 0.408 es 0.000 et 0.001 er 0.000] ------- [3:255 -1:255 30 0] [0x2 1 4 [4 0] [3 10]] (REQUEST)
s 13.923424939 _3_ AGT  --- 59 cbr 512 [0 0 0 0] [energy 4.309577 ei 0.689 es 0.000 et 0.001 er 0.000] ------- [3:0 4:0 32 0] [59] 0 0
r 13.923424939 _3_ RTR  --- 59 cbr 512 [0 0 0 0] [energy 4.309577 ei 0.689 es 0.000 et 0.001 er 0.000] ------- [3:0 4:0 32 0] [59] 0 0
s 14.121769279 _3_ AGT  --- 60 cbr 512 [0 0 0 0] [energy 4.309577 ei 0.689 es 0.000 et 0.001 er 0.000] ------- [3:0 4:0 32 0] [60] 0 0
r 14.121769279 _3_ RTR  --- 60 cbr 512 [0 0 0 0] [energy 4.309577 ei 0.689 es 0.000 et 0.001 er 0.000] ------- [3:0 4:0 32 0] [60] 0 0
s 14.231795960 _3_ AGT  --- 61 cbr 512 [0 0 0 0] [energy 4.309577 ei 0.689 es 0.000 et 0.001 er 0.000] ------- [3:0 4:0 32 0] [61] 0 0
r 14.231795960 _3_ RTR  --- 61 cbr 512 [0 0 0 0] [energy 4.309577 ei 0.689 es 0.000 et 0.001 er 0.000] ------- [3:0 4:0 32 0] [61] 0 0
s 14.504817056 _3_ AGT  --- 62 cbr 512 [0 0 0 0] [energy 4.309577 ei 0.689 es 0.000 et 0.001 er 0.000] ------- [3:0 4:0 32 0] [62] 0 0
r 14.504817056 _3_ RTR  --- 62 cbr 512 [0 0 0 0] [energy 4.309577 ei 0.689 es 0.000 et 0.001 er 0.000] ------- [3:0 4:0 32 0] [62] 0 0
s 14.711396767 _3_ AGT  --- 63 cbr 512 [0 0 0 0] [energy 4.309577 ei 0.689 es 0.000 et 0.001 er 0.000] ------- [3:0 4:0 32 0] [63] 0 0
r 14.711396767 _3_ RTR  --- 63 cbr 512 [0 0 0 0] [energy 4.309577 ei 0.689 es 0.000 et 0.001 er 0.000] ------- [3:0 4:0 32 0] [63] 0 0
s 14.958414992 _3_ AGT  --- 64 cbr 512 [0 0 0 0] [energy 4.309577 ei 0.689 es 0.000 et 0.001 er 0.000] ------- [3:0 4:0 32 0] [64] 0 0
r 14.958414992 _3_ RTR  --- 64 cbr 512 [0 0 0 0] [energy 4.309577 ei 0.689 es 0.000 et 0.001 er 0.000] ------- [3:0 4:0 32 0] [64] 0 0
D 14.958414992 _3_ RTR  IFQ 0 cbr 532 [0 0 0 0] [energy 4.309577 ei 0.689 es 0.000 et 0.001 er 0.000] ------- [3:0 4:0 30 0] [0] 0 0
s 15.142659002 _3_ AGT  --- 65 cbr 512 [0 0 0 0] [energy 4.309577 ei 0.689 es 0.000 et 0.001 er 0.000] ------- [3:0 4:0 32 0] [65] 0 0
r 15.142659002 _3_ RTR  --- 65 cbr 512 [0 0 0 0] [energy 4.309577 ei 0.689 es 0.000 et 0.001 er 0.000] ------- [3:0 4:0 32 0] [65] 0 0
D 15.142659002 _3_ RTR  IFQ 1 cbr 532 [0 0 0 0] [energy 4.309577 ei 0.689 es 0.000 et 0.001 er 0.000] ------- [3:0 4:0 30 0] [1] 0 0
s 15.260299031 _3_ AGT  --- 66 cbr 512 [0 0 0 0] [energy 4.309577 ei 0.689 es 0.000 et 0.001 er 0.000] ------- [3:0 4:0 32 0] [66] 0 0
r 15.260299031 _3_ RTR  --- 66 cbr 512 [0 0 0 0] [energy 4.309577 ei 0.689 es 0.000 et 0.001 er 0.000] ------- [3:0 4:0 32 0] [66] 0 0
D 15.260299031 _3_ RTR  IFQ 2 cbr 532 [0 0 0 0] [energy 4.309577 ei 0.689 es 0.000 et 0.001 er 0.000] ------- [3:0 4:0 30 0] [2] 0 0
s 15.523179062 _3_ AGT  --- 67 cbr 512 [0 0 0 0] [energy 4.309577 ei 0.689 es 0.000 et 0.001 er 0.000] ------- [3:0 4:0 32 0] [67] 0 0
r 15.523179062 _3_ RTR  --- 67 cbr 512 [0 0 0 0] [energy 4.309577 ei 0.689 es 0.000 et 0.001 er 0.000] ------- [3:0 4:0 32 0] [67] 0 0
D 15.523179062 _3_ RTR  IFQ 3 cbr 532 [0 0 0 0] [energy 4.309577 ei 0.689 es 0.000 et 0.001 er 0.000] ------- [3:0 4:0 30 0] [3] 0 0
s 15.803748591 _3_ AGT  --- 68 cbr 512 [0 0 0 0] [energy 4.309577 ei 0.689 es 0.000 et 0.001 er 0.000] ------- [3:0 4:0 32 0] [68] 0 0
r 15.803748591 _3_ RTR  --- 68 cbr 512 [0 0 0 0] [energy 4.309577 ei 0.689 es 0.000 et 0.001 er 0.000] ------- [3:0 4:0 32 0] [68] 0 0
D 15.803748591 _3_ RTR  IFQ 4 cbr 532 [0 0 0 0] [energy 4.309577 ei 0.689 es 0.000 et 0.001 er 0.000] ------- [3:0 4:0 30 0] [4] 0 0
s 16.049356945 _3_ AGT  --- 69 cbr 512 [0 0 0 0] [energy 4.309577 ei 0.689 es 0.000 et 0.001 er 0.000] ------- [3:0 4:0 32 0] [69] 0 0
r 16.049356945 _3_ RTR  --- 69 cbr 512 [0 0 0 0] [energy 4.309577 ei 0.689 es 0.000 et 0.001 er 0.000] ------- [3:0 4:0 32 0] [69] 0 0
D 16.049356945 _3_ RTR  IFQ 5 cbr 532 [0 0 0 0] [energy 4.309577 ei 0.689 es 0.000 et 0.001 er 0.000] ------- [3:0 4:0 30 0] [5] 0 0
s 16.324286206 _3_ AGT  --- 70 cbr 512 [0 0 0 0] [energy 4.309577 ei 0.689 es 0.000 et 0.001 er 0.000] ------- [3:0 4:0 32 0] [70] 0 0
r 16.324286206 _3_ RTR  --- 70 cbr 512 [0 0 0 0] [energy 4.309577 ei 0.689 es 0.000 et 0.001 er 0.000] ------- [3:0 4:0 32 0] [70] 0 0
D 16.324286206 _3_ RTR  IFQ 6 cbr 532 [0 0 0 0] [energy 4.309577 ei 0.689 es 0.000 et 0.001 er 0.000] ------- [3:0 4:0 30 0] [6] 0 0
s 16.541508702 _3_ AGT  --- 71 cbr 512 [0 0 0 0] [energy 4.309577 ei 0.689 es 0.000 et 0.001 er 0.000] ------- [3:0 4:0 32 0] [71] 0 0
r 16.541508702 _3_ RTR  --- 71 cbr 512 [0 0 0 0] [energy 4.309577 ei 0.689 es 0.000 et 0.001 er 0.000] ------- [3:0 4:0 32 0] [71] 0 0
D 16.541508702 _3_ RTR  IFQ 7 cbr 532 [0 0 0 0] [energy 4.309577 ei 0.689 es 0.000 et 0.001 er 0.000] ------- [3:0 4:0 30 0] [7] 0 0
s 16.788676808 _3_ AGT  --- 72 cbr 512 [0 0 0 0] [energy 4.309577 ei 0.689 es 0.000 et 0.001 er 0.000] ------- [3:0 4:0 32 0] [72] 0 0
r 16.788676808 _3_ RTR  --- 72 cbr 512 [0 0 0 0] [energy 4.309577 ei 0.689 es 0.000 et 0.001 er 0.000] ------- [3:0 4:0 32 0] [72] 0 0
D 16.788676808 _3_ RTR  IFQ 8 cbr 532 [0 0 0 0] [energy 4.309577 ei 0.689 es 0.000 et 0.001 er 0.000] ------- [3:0 4:0 30 0] [8] 0 0
M 16.83329 0 (59.95, 461.62, 0.00), (59.95, 461.62), 0.00
s 17.049079180 _3_ AGT  --- 73 cbr 512 [0 0 0 0] [energy 4.309577 ei 0.689 es 0.000 et 0.001 er 0.000] ------- [3:0 4:0 32 0] [73] 0 0
r 17.049079180 _3_ RTR  --- 73 cbr 512 [0 0 0 0] [energy 4.309577 ei 0.689 es 0.000 et 0.001 er 0.000] ------- [3:0 4:0 32 0] [73] 0 0
D 17.049079180 _3_ RTR  IFQ 9 cbr 532 [0 0 0 0] [energy 4.309577 ei 0.689 es 0.000 et 0.001 er 0.000] ------- [3:0 4:0 30 0] [9] 0 0
s 17.220290897 _3_ AGT  --- 74 cbr 512 [0 0 0 0] [energy 4.309577 ei 0.689 es 0.000 et 0.001 er 0.000] ------- [3:0 4:0 32 0] [74] 0 0
r 17.220290897 _3_ RTR  --- 74 cbr 512 [0 0 0 0] [energy 4.309577 ei 0.689 es 0.000 et 0.001 er 0.000] ------- [3:0 4:0 32 0] [74] 0 0
D 17.220290897 _3_ RTR  IFQ 10 cbr 532 [0 0 0 0] [energy 4.309577 ei 0.689 es 0.000 et 0.001 er 0.000] ------- [3:0 4:0 30 0] [10] 0 0
s 17.431972614 _3_ AGT  --- 75 cbr 512 [0 0 0 0] [energy 4.309577 ei 0.689 es 0.000 et 0.001 er 0.000] ------- [3:0 4:0 32 0] [75] 0 0
r 17.431972614 _3_ RTR  --- 75 cbr 512 [0 0 0 0] [energy 4.309577 ei 0.689 es 0.000 et 0.001 er 0.000] ------- [3:0 4:0 32 0] [75] 0 0
D 17.431972614 _3_ RTR  IFQ 11 cbr 532 [0 0 0 0] [energy 4.309577 ei 0.689 es 0.000 et 0.001 er 0.000] ------- [3:0 4:0 30 0] [11] 0 0
s 17.695089082 _3_ AGT  --- 76 cbr 512 [0 0 0 0] [energy 4.309577 ei 0.689 es 0.000 et 0.001 er 0.000] ------- [3:0 4:0 32 0] [76] 0 0
r 17.695089082 _3_ RTR  --- 76 cbr 512 [0 0 0 0] [energy 4.309577 ei 0.689 es 0.000 et 0.001 er 0.000] ------- [3:0 4:0 32 0] [76] 0 0
D 17.695089082 _3_ RTR  IFQ 12 cbr 532 [0 0 0 0] [energy 4.309577 ei 0.689 es 0.000 et 0.001 er 0.000] ------- [3:0 4:0 30 0] [12] 0 0
M 17.83329 0 (59.95, 461.62, 0.00), (124.89, 306.58), 30.76
s 17.951844092 _3_ AGT  --- 77 cbr 512 [0 0 0 0] [energy 4.309577 ei 0.689 es 0.000 et 0.001 er 0.000] ------- [3:0 4:0 32 0] [77] 0 0
r 17.951844092 _3_ RTR  --- 77 cbr 512 [0 0 0 0] [energy 4.309577 ei 0.689 es 0.000 et 0.001 er 0.000] ------- [3:0 4:0 32 0] [77] 0 0
D 17.951844092 _3_ RTR  IFQ 13 cbr 532 [0 0 0 0] [energy 4.309577 ei 0.689 es 0.000 et 0.001 er 0.000] ------- [3:0 4:0 30 0] [13] 0 0
s 18.184549274 _3_ AGT  --- 78 cbr 512 [0 0 0 0] [energy 4.309577 ei 0.689 es 0.000 et 0.001 er 0.000] ------- [3:0 4:0 32 0] [78] 0 0
r 18.184549274 _3_ RTR  --- 78 cbr 512 [0 0 0 0] [energy 4.309577 ei 0.689 es 0.000 et 0.001 er 0.000] ------- [3:0 4:0 32 0] [78] 0 0
D 18.184549274 _3_ RTR  IFQ 14 cbr 532 [0 0 0 0] [energy 4.309577 ei 0.689 es 0.000 et 0.001 er 0.000] ------- [3:0 4:0 30 0] [14] 0 0
s 18.314546960 _3_ AGT  --- 79 cbr 512 [0 0 0 0] [energy 4.309577 ei 0.689 es 0.000 et 0.001 er 0.000] ------- [3:0 4:0 32 0] [79] 0 0
r 18.314546960 _3_ RTR  --- 79 cbr 512 [0 0 0 0] [energy 4.309577 ei 0.689 es 0.000 et 0.001 er 0.000] ------- [3:0 4:0 32 0] [79] 0 0
D 18.314546960 _3_ RTR  IFQ 15 cbr 532 [0 0 0 0] [energy 4.309577 ei 0.689 es 0.000 et 0.001 er 0.000] ------- [3:0 4:0 30 0] [15] 0 0
s 18.495822464 _3_ AGT  --- 80 cbr 512 [0 0 0 0] [energy 4.309577 ei 0.689 es 0.000 et 0.001 er 0.000] ------- [3:0 4:0 32 0] [80] 0 0
r 18.495822464 _3_ RTR  --- 80 cbr 512 [0 0 0 0] [energy 4.309577 ei 0.689 es 0.000 et 0.001 er 0.000] ------- [3:0 4:0 32 0] [80] 0 0
D 18.495822464 _3_ RTR  IFQ 16 cbr 532 [0 0 0 0] [energy 4.309577 ei 0.689 es 0.000 et 0.001 er 0.000] ------- [3:0 4:0 30 0] [16] 0 0
s 18.705047067 _3_ AGT  --- 81 cbr 512 [0 0 0 0] [energy 4.309577 ei 0.689 es 0.000 et 0.001 er 0.000] ------- [3:0 4:0 32 0] [81] 0 0
r 18.705047067 _3_ RTR  --- 81 cbr 512 [0 0 0 0] [energy 4.309577 ei 0.689 es 0.000 et 0.001 er 0.000] ------- [3:0 4:0 32 0] [81] 0 0
D 18.705047067 _3_ RTR  IFQ 17 cbr 532 [0 0 0 0] [energy 4.309577 ei 0.689 es 0.000 et 0.001 er 0.000] ------- [3:0 4:0 30 0] [17] 0 0
s 18.879767837 _3_ AGT  --- 82 cbr 512 [0 0 0 0] [energy 4.309577 ei 0.689 es 0.000 et 0.001 er 0.000] ------- [3:0 4:0 32 0] [82] 0 0
r 18.879767837 _3_ RTR  --- 82 cbr 512 [0 0 0 0] [energy 4.309577 ei 0.689 es 0.000 et 0.001 er 0.000] ------- [3:0 4:0 32 0] [82] 0 0
D 18.879767837 _3_ RTR  IFQ 18 cbr 532 [0 0 0 0] [energy 4.309577 ei 0.689 es 0.000 et 0.001 er 0.000] ------- [3:0 4:0 30 0] [18] 0 0
s 18.979802745 _3_ AGT  --- 83 cbr 512 [0 0 0 0] [energy 4.309577 ei 0.689 es 0.000 et 0.001 er 0.000] ------- [3:0 4:0 32 0] [83] 0 0
r 18.979802745 _3_ RTR  --- 83 cbr 512 [0 0 0 0] [energy 4.309577 ei 0.689 es 0.000 et 0.001 er 0.000] ------- [3:0 4:0 32 0] [83] 0 0
D 18.979802745 _3_ RTR  IFQ 19 cbr 532 [0 0 0 0] [energy 4.309577 ei 0.689 es 0.000 et 0.001 er 0.000] ------- [3:0 4:0 30 0] [19] 0 0
s 19.096488723 _3_ AGT  --- 84 cbr 512 [0 0 0 0] [energy 4.309577 ei 0.689 es 0.000 et 0.001 er 0.000] ------- [3:0 4:0 32 0] [84] 0 0
r 19.096488723 _3_ RTR  --- 84 cbr 512 [0 0 0 0] [energy 4.309577 ei 0.689 es 0.000 et 0.001 er 0.000] ------- [3:0 4:0 32 0] [84] 0 0
D 19.096488723 _3_ RTR  IFQ 20 cbr 532 [0 0 0 0] [energy 4.309577 ei 0.689 es 0.000 et 0.001 er 0.000] ------- [3:0 4:0 30 0] [20] 0 0
s 19.262931608 _3_ AGT  --- 85 cbr 512 [0 0 0 0] [energy 4.309577 ei 0.689 es 0.000 et 0.001 er 0.000] ------- [3:0 4:0 32 0] [85] 0 0
r 19.262931608 _3_ RTR  --- 85 cbr 512 [0 0 0 0] [energy 4.309577 ei 0.689 es 0.000 et 0.001 er 0.000] ------- [3:0 4:0 32 0] [85] 0 0
D 19.262931608 _3_ RTR  IFQ 21 cbr 532 [0 0 0 0] [energy 4.309577 ei 0.689 es 0.000 et 0.001 er 0.000] ------- [3:0 4:0 30 0] [21] 0 0
s 19.502069569 _3_ AGT  --- 86 cbr 512 [0 0 0 0] [energy 4.309577 ei 0.689 es 0.000 et 0.001 er 0.000] ------- [3:0 4:0 32 0] [86] 0 0
r 19.502069569 _3_ RTR  --- 86 cbr 512 [0 0 0 0] [energy 4.309577 ei 0.689 es 0.000 et 0.001 er 0.000] ------- [3:0 4:0 32 0] [86] 0 0
D 19.502069569 _3_ RTR  IFQ 22 cbr 532 [0 0 0 0] [energy 4.309577 ei 0.689 es 0.000 et 0.001 er 0.000] ------- [3:0 4:0 30 0] [22] 0 0
s 19.784457410 _3_ AGT  --- 87 cbr 512 [0 0 0 0] [energy 4.309577 ei 0.689 es 0.000 et 0.001 er 0.000] ------- [3:0 4:0 32 0] [87] 0 0
r 19.784457410 _3_ RTR  --- 87 cbr 512 [0 0 0 0] [energy 4.309577 ei 0.689 es 0.000 et 0.001 er 0.000] ------- [3:0 4:0 32 0] [87] 0 0
D 19.784457410 _3_ RTR  IFQ 23 cbr 532 [0 0 0 0] [energy 4.309577 ei 0.689 es 0.000 et 0.001 er 0.000] ------- [3:0 4:0 30 0] [23] 0 0
s 19.891015881 _3_ AGT  --- 88 cbr 512 [0 0 0 0] [energy 4.309577 ei 0.689 es 0.000 et 0.001 er 0.000] ------- [3:0 4:0 32 0] [88] 0 0
r 19.891015881 _3_ RTR  --- 88 cbr 512 [0 0 0 0] [energy 4.309577 ei 0.689 es 0.000 et 0.001 er 0.000] ------- [3:0 4:0 32 0] [88] 0 0
D 19.891015881 _3_ RTR  IFQ 24 cbr 532 [0 0 0 0] [energy 4.309577 ei 0.689 es 0.000 et 0.001 er 0.000] ------- [3:0 4:0 30 0] [24] 0 0
s 20.064065346 _3_ AGT  --- 89 cbr 512 [0 0 0 0] [energy 4.309577 ei 0.689 es 0.000 et 0.001 er 0.000] ------- [3:0 4:0 32 0] [89] 0 0
r 20.064065346 _3_ RTR  --- 89 cbr 512 [0 0 0 0] [energy 4.309577 ei 0.689 es 0.000 et 0.001 er 0.000] ------- [3:0 4:0 32 0] [89] 0 0
D 20.064065346 _3_ RTR  IFQ 25 cbr 532 [0 0 0 0] [energy 4.309577 ei 0.689 es 0.000 et 0.001 er 0.000] ------- [3:0 4:0 30 0] [25] 0 0
s 20.225063140 _3_ AGT  --- 90 cbr 512 [0 0 0 0] [energy 4.309577 ei 0.689 es 0.000 et 0.001 er 0.000] ------- [3:0 4:0 32 0] [90] 0 0
r 20.225063140 _3_ RTR  --- 90 cbr 512 [0 0 0 0] [energy 4.309577 ei 0.689 es 0.000 et 0.001 er 0.000] ------- [3:0 4:0 32 0] [90] 0 0