n -t * -s 0  -x 336.70628094927099 -y 360.83086499777198 -Z 0 -z 20  -v circle -c green
n -t * -s 1  -x 29.413997455992 -y 14.590619372867 -Z 0 -z 20  -v circle -c green
n -t * -s 2  -x 71.903611406672994 -y 457.19935747270199 -Z 0 -z 20  -v circle -c green
n -t * -s 3  -x 500 -y 0 -Z 0 -z 20  -v circle -c green
n -t * -s 4  -x 0 -y 500 -Z 0 -z 20  -v circle -c green
V -t * -v 1.0a5 -a 0
W -t * -x 530 -y 530
A -t * -n 1 -p 0 -o 0x7fffffff -c 30 -a 1
A -t * -h 1 -m 1073741823 -s 0
n -t 0.000000 -s 0 -x 336.706281 -y 360.830865 -U -15.653766 -V 8.941668 -T 8.334406
n -t 0.000000 -s 1 -x 29.413997 -y 14.590619 -U 1.549797 -V 15.727036 -T 24.474994
n -t 0.000000 -s 2 -x 71.903611 -y 457.199357 -U 0.242124 -V -17.092552 -T 25.154351
+ -t 2.556838879 -s 3 -d -1 -p cbr -e 512 -c 2 -a 0 -i 0 -k AGT 
- -t 2.556838879 -s 3 -d -1 -p cbr -e 512 -c 2 -a 0 -i 0 -k AGT
h -t 2.556838879 -s 3 -d -1 -p cbr -e 512 -c 2 -a 0 -i 0 -k AGT
+ -t 2.556838879 -s 3 -d -1 -p AODV -e 52 -c 2 -a 0 -i 0 -k RTR 
- -t 2.556838879 -s 3 -d -1 -p AODV -e 52 -c 2 -a 0 -i 0 -k RTR
h -t 2.556838879 -s 3 -d -1 -p AODV -e 52 -c 2 -a 0 -i 0 -k RTR
+ -t 2.556953879 -s 3 -d -1 -p AODV -e 110 -c 2 -a 0 -i 0 -k MAC 
- -t 2.556953879 -s 3 -d -1 -p AODV -e 110 -c 2 -a 0 -i 0 -k MAC
h -t 2.556953879 -s 3 -d -1 -p AODV -e 110 -c 2 -a 0 -i 0 -k MAC
+ -t 2.656906794 -s 3 -d -1 -p cbr -e 512 -c 2 -a 0 -i 1 -k AGT 
- -t 2.656906794 -s 3 -d -1 -p cbr -e 512 -c 2 -a 0 -i 1 -k AGT
h -t 2.656906794 -s 3 -d -1 -p cbr -e 512 -c 2 -a 0 -i 1 -k AGT
+ -t 2.774531328 -s 3 -d -1 -p cbr -e 512 -c 2 -a 0 -i 2 -k AGT 
- -t 2.774531328 -s 3 -d -1 -p cbr -e 512 -c 2 -a 0 -i 2 -k AGT
h -t 2.774531328 -s 3 -d -1 -p cbr -e 512 -c 2 -a 0 -i 2 -k AGT
+ -t 2.962766005 -s 3 -d -1 -p cbr -e 512 -c 2 -a 0 -i 3 -k AGT 
- -t 2.962766005 -s 3 -d -1 -p cbr -e 512 -c 2 -a 0 -i 3 -k AGT
h -t 2.962766005 -s 3 -d -1 -p cbr -e 512 -c 2 -a 0 -i 3 -k AGT
+ -t 3.222597096 -s 3 -d -1 -p cbr -e 512 -c 2 -a 0 -i 4 -k AGT 
- -t 3.222597096 -s 3 -d -1 -p cbr -e 512 -c 2 -a 0 -i 4 -k AGT
h -t 3.222597096 -s 3 -d -1 -p cbr -e 512 -c 2 -a 0 -i 4 -k AGT
+ -t 3.385189450 -s 3 -d -1 -p cbr -e 512 -c 2 -a 0 -i 5 -k AGT 
- -t 3.385189450 -s 3 -d -1 -p cbr -e 512 -c 2 -a 0 -i 5 -k AGT
h -t 3.385189450 -s 3 -d -1 -p cbr -e 512 -c 2 -a 0 -i 5 -k AGT
+ -t 3.648484660 -s 3 -d -1 -p cbr -e 512 -c 2 -a 0 -i 6 -k AGT 
- -t 3.648484660 -s 3 -d -1 -p cbr -e 512 -c 2 -a 0 -i 6 -k AGT
h -t 3.648484660 -s 3 -d -1 -p cbr -e 512 -c 2 -a 0 -i 6 -k AGT
+ -t 3.795405010 -s 3 -d -1 -p cbr -e 512 -c 2 -a 0 -i 7 -k AGT 
- -t 3.795405010 -s 3 -d -1 -p cbr -e 512 -c 2 -a 0 -i 7 -k AGT
h -t 3.795405010 -s 3 -d -1 -p cbr -e 512 -c 2 -a 0 -i 7 -k AGT
+ -t 4.023178039 -s 3 -d -1 -p cbr -e 512 -c 2 -a 0 -i 8 -k AGT 
- -t 4.023178039 -s 3 -d -1 -p cbr -e 512 -c 2 -a 0 -i 8 -k AGT
h -t 4.023178039 -s 3 -d -1 -p cbr -e 512 -c 2 -a 0 -i 8 -k AGT
+ -t 4.184993851 -s 3 -d -1 -p cbr -e 512 -c 2 -a 0 -i 9 -k AGT 
- -t 4.184993851 -s 3 -d -1 -p cbr -e 512 -c 2 -a 0 -i 9 -k AGT
h -t 4.184993851 -s 3 -d -1 -p cbr -e 512 -c 2 -a 0 -i 9 -k AGT
+ -t 4.452258558 -s 3 -d -1 -p cbr -e 512 -c 2 -a 0 -i 10 -k AGT 
- -t 4.452258558 -s 3 -d -1 -p cbr -e 512 -c 2 -a 0 -i 10 -k AGT
h -t 4.452258558 -s 3 -d -1 -p cbr -e 512 -c 2 -a 0 -i 10 -k AGT
+ -t 4.452258558 -s 3 -d -1 -p AODV -e 52 -c 2 -a 0 -i 0 -k RTR 
- -t 4.452258558 -s 3 -d -1 -p AODV -e 52 -c 2 -a 0 -i 0 -k RTR
h -t 4.452258558 -s 3 -d -1 -p AODV -e 52 -c 2 -a 0 -i 0 -k RTR
+ -t 4.452873558 -s 3 -d -1 -p AODV -e 110 -c 2 -a 0 -i 0 -k MAC 
- -t 4.452873558 -s 3 -d -1 -p AODV -e 110 -c 2 -a 0 -i 0 -k MAC
h -t 4.452873558 -s 3 -d -1 -p AODV -e 110 -c 2 -a 0 -i 0 -k MAC
+ -t 4.585087639 -s 3 -d -1 -p cbr -e 512 -c 2 -a 0 -i 11 -k AGT 
- -t 4.585087639 -s 3 -d -1 -p cbr -e 512 -c 2 -a 0 -i 11 -k AGT
h -t 4.585087639 -s 3 -d -1 -p cbr -e 512 -c 2 -a 0 -i 11 -k AGT
+ -t 4.707849289 -s 3 -d -1 -p cbr -e 512 -c 2 -a 0 -i 12 -k AGT 
- -t 4.707849289 -s 3 -d -1 -p cbr -e 512 -c 2 -a 0 -i 12 -k AGT
h -t 4.707849289 -s 3 -d -1 -p cbr -e 512 -c 2 -a 0 -i 12 -k AGT
+ -t 4.979794829 -s 3 -d -1 -p cbr -e 512 -c 2 -a 0 -i 13 -k AGT 
- -t 4.979794829 -s 3 -d -1 -p cbr -e 512 -c 2 -a 0 -i 13 -k AGT
h -t 4.979794829 -s 3 -d -1 -p cbr -e 512 -c 2 -a 0 -i 13 -k AGT
+ -t 5.164526176 -s 3 -d -1 -p cbr -e 512 -c 2 -a 0 -i 14 -k AGT 
- -t 5.164526176 -s 3 -d -1 -p cbr -e 512 -c 2 -a 0 -i 14 -k AGT
h -t 5.164526176 -s 3 -d -1 -p cbr -e 512 -c 2 -a 0 -i 14 -k AGT
+ -t 5.299487227 -s 3 -d -1 -p cbr -e 512 -c 2 -a 0 -i 15 -k AGT 
- -t 5.299487227 -s 3 -d -1 -p cbr -e 512 -c 2 -a 0 -i 15 -k AGT
h -t 5.299487227 -s 3 -d -1 -p cbr -e 512 -c 2 -a 0 -i 15 -k AGT
+ -t 5.418314998 -s 3 -d -1 -p cbr -e 512 -c 2 -a 0 -i 16 -k AGT 
- -t 5.418314998 -s 3 -d -1 -p cbr -e 512 -c 2 -a 0 -i 16 -k AGT
h -t 5.418314998 -s 3 -d -1 -p cbr -e 512 -c 2 -a 0 -i 16 -k AGT
+ -t 5.679720708 -s 3 -d -1 -p cbr -e 512 -c 2 -a 0 -i 17 -k AGT 
- -t 5.679720708 -s 3 -d -1 -p cbr -e 512 -c 2 -a 0 -i 17 -k AGT
h -t 5.679720708 -s 3 -d -1 -p cbr -e 512 -c 2 -a 0 -i 17 -k AGT
+ -t 5.849468913 -s 3 -d -1 -p cbr -e 512 -c 2 -a 0 -i 18 -k AGT 
- -t 5.849468913 -s 3 -d -1 -p cbr -e 512 -c 2 -a 0 -i 18 -k AGT
h -t 5.849468913 -s 3 -d -1 -p cbr -e 512 -c 2 -a 0 -i 18 -k AGT
+ -t 6.001086503 -s 3 -d -1 -p cbr -e 512 -c 2 -a 0 -i 19 -k AGT 
- -t 6.001086503 -s 3 -d -1 -p cbr -e 512 -c 2 -a 0 -i 19 -k AGT
h -t 6.001086503 -s 3 -d -1 -p cbr -e 512 -c 2 -a 0 -i 19 -k AGT
+ -t 6.182823638 -s 3 -d -1 -p cbr -e 512 -c 2 -a 0 -i 20 -k AGT 
- -t 6.182823638 -s 3 -d -1 -p cbr -e 512 -c 2 -a 0 -i 20 -k AGT
h -t 6.182823638 -s 3 -d -1 -p cbr -e 512 -c 2 -a 0 -i 20 -k AGT
+ -t 6.386553397 -s 3 -d -1 -p cbr -e 512 -c 2 -a 0 -i 21 -k AGT 
- -t 6.386553397 -s 3 -d -1 -p cbr -e 512 -c 2 -a 0 -i 21 -k AGT
h -t 6.386553397 -s 3 -d -1 -p cbr -e 512 -c 2 -a 0 -i 21 -k AGT
+ -t 6.579776585 -s 3 -d -1 -p cbr -e 512 -c 2 -a 0 -i 22 -k AGT 
- -t 6.579776585 -s 3 -d -1 -p cbr -e 512 -c 2 -a 0 -i 22 -k AGT
h -t 6.579776585 -s 3 -d -1 -p cbr -e 512 -c 2 -a 0 -i 22 -k AGT
+ -t 6.818237951 -s 3 -d -1 -p cbr -e 512 -c 2 -a 0 -i 23 -k AGT 
- -t 6.818237951 -s 3 -d -1 -p cbr -e 512 -c 2 -a 0 -i 23 -k AGT
h -t 6.818237951 -s 3 -d -1 -p cbr -e 512 -c 2 -a 0 -i 23 -k AGT
+ -t 7.090651407 -s 3 -d -1 -p cbr -e 512 -c 2 -a 0 -i 24 -k AGT 
- -t 7.090651407 -s 3 -d -1 -p cbr -e 512 -c 2 -a 0 -i 24 -k AGT
h -t 7.090651407 -s 3 -d -1 -p cbr -e 512 -c 2 -a 0 -i 24 -k AGT
+ -t 7.358616448 -s 3 -d -1 -p cbr -e 512 -c 2 -a 0 -i 25 -k AGT 
- -t 7.358616448 -s 3 -d -1 -p cbr -e 512 -c 2 -a 0 -i 25 -k AGT
h -t 7.358616448 -s 3 -d -1 -p cbr -e 512 -c 2 -a 0 -i 25 -k AGT
+ -t 7.502048340 -s 3 -d -1 -p cbr -e 512 -c 2 -a 0 -i 26 -k AGT 
- -t 7.502048340 -s 3 -d -1 -p cbr -e 512 -c 2 -a 0 -i 26 -k AGT
h -t 7.502048340 -s 3 -d -1 -p cbr -e 512 -c 2 -a 0 -i 26 -k AGT
+ -t 7.650293465 -s 3 -d -1 -p cbr -e 512 -c 2 -a 0 -i 27 -k AGT 
- -t 7.650293465 -s 3 -d -1 -p cbr -e 512 -c 2 -a 0 -i 27 -k AGT
h -t 7.650293465 -s 3 -d -1 -p cbr -e 512 -c 2 -a 0 -i 27 -k AGT
+ -t 7.920514776 -s 3 -d -1 -p cbr -e 512 -c 2 -a 0 -i 28 -k AGT 
- -t 7.920514776 -s 3 -d -1 -p cbr -e 512 -c 2 -a 0 -i 28 -k AGT
h -t 7.920514776 -s 3 -d -1 -p cbr -e 512 -c 2 -a 0 -i 28 -k AGT
+ -t 8.155984564 -s 3 -d -1 -p cbr -e 512 -c 2 -a 0 -i 29 -k AGT 
- -t 8.155984564 -s 3 -d -1 -p cbr -e 512 -c 2 -a 0 -i 29 -k AGT
h -t 8.155984564 -s 3 -d -1 -p cbr -e 512 -c 2 -a 0 -i 29 -k AGT
+ -t 8.155984564 -s 3 -d -1 -p AODV -e 52 -c 2 -a 0 -i 0 -k RTR 
- -t 8.155984564 -s 3 -d -1 -p AODV -e 52 -c 2 -a 0 -i 0 -k RTR
h -t 8.155984564 -s 3 -d -1 -p AODV -e 52 -c 2 -a 0 -i 0 -k RTR
+ -t 8.156199564 -s 3 -d -1 -p AODV -e 110 -c 2 -a 0 -i 0 -k MAC 
- -t 8.156199564 -s 3 -d -1 -p AODV -e 110 -c 2 -a 0 -i 0 -k MAC
h -t 8.156199564 -s 3 -d -1 -p AODV -e 110 -c 2 -a 0 -i 0 -k MAC
n -t 8.334406 -s 0 -x 206.241447 -y 435.354358 -U -0.000000 -V 0.000000 -T 0.000000
+ -t 8.408430943 -s 3 -d -1 -p cbr -e 512 -c 2 -a 0 -i 30 -k AGT 
- -t 8.408430943 -s 3 -d -1 -p cbr -e 512 -c 2 -a 0 -i 30 -k AGT
h -t 8.408430943 -s 3 -d -1 -p cbr -e 512 -c 2 -a 0 -i 30 -k AGT
+ -t 8.530270637 -s 3 -d -1 -p cbr -e 512 -c 2 -a 0 -i 31 -k AGT 
- -t 8.530270637 -s 3 -d -1 -p cbr -e 512 -c 2 -a 0 -i 31 -k AGT
h -t 8.530270637 -s 3 -d -1 -p cbr -e 512 -c 2 -a 0 -i 31 -k AGT
+ -t 8.711112143 -s 3 -d -1 -p cbr -e 512 -c 2 -a 0 -i 32 -k AGT 
- -t 8.711112143 -s 3 -d -1 -p cbr -e 512 -c 2 -a 0 -i 32 -k AGT
h -t 8.711112143 -s 3 -d -1 -p cbr -e 512 -c 2 -a 0 -i 32 -k AGT
+ -t 8.848585191 -s 3 -d -1 -p cbr -e 512 -c 2 -a 0 -i 33 -k AGT 
- -t 8.848585191 -s 3 -d -1 -p cbr -e 512 -c 2 -a 0 -i 33 -k AGT
h -t 8.848585191 -s 3 -d -1 -p cbr -e 512 -c 2 -a 0 -i 33 -k AGT
+ -t 9.126073900 -s 3 -d -1 -p cbr -e 512 -c 2 -a 0 -i 34 -k AGT 
- -t 9.126073900 -s 3 -d -1 -p cbr -e 512 -c 2 -a 0 -i 34 -k AGT
h -t 9.126073900 -s 3 -d -1 -p cbr -e 512 -c 2 -a 0 -i 34 -k AGT
n -t 9.334406 -s 0 -x 206.241447 -y 435.354358 -U 35.912153 -V 21.692902 -T 2.015845
+ -t 9.415326891 -s 3 -d -1 -p cbr -e 512 -c 2 -a 0 -i 35 -k AGT 
- -t 9.415326891 -s 3 -d -1 -p cbr -e 512 -c 2 -a 0 -i 35 -k AGT
h -t 9.415326891 -s 3 -d -1 -p cbr -e 512 -c 2 -a 0 -i 35 -k AGT
+ -t 9.693596455 -s 3 -d -1 -p cbr -e 512 -c 2 -a 0 -i 36 -k AGT 
- -t 9.693596455 -s 3 -d -1 -p cbr -e 512 -c 2 -a 0 -i 36 -k AGT
h -t 9.693596455 -s 3 -d -1 -p cbr -e 512 -c 2 -a 0 -i 36 -k AGT
+ -t 9.816002719 -s 3 -d -1 -p cbr -e 512 -c 2 -a 0 -i 37 -k AGT 
- -t 9.816002719 -s 3 -d -1 -p cbr -e 512 -c 2 -a 0 -i 37 -k AGT
h -t 9.816002719 -s 3 -d -1 -p cbr -e 512 -c 2 -a 0 -i 37 -k AGT
+ -t 9.927683244 -s 3 -d -1 -p cbr -e 512 -c 2 -a 0 -i 38 -k AGT 
- -t 9.927683244 -s 3 -d -1 -p cbr -e 512 -c 2 -a 0 -i 38 -k AGT
h -t 9.927683244 -s 3 -d -1 -p cbr -e 512 -c 2 -a 0 -i 38 -k AGT
+ -t 10.029844912 -s 3 -d -1 -p cbr -e 512 -c 2 -a 0 -i 39 -k AGT 
- -t 10.029844912 -s 3 -d -1 -p cbr -e 512 -c 2 -a 0 -i 39 -k AGT
h -t 10.029844912 -s 3 -d -1 -p cbr -e 512 -c 2 -a 0 -i 39 -k AGT
+ -t 10.248850389 -s 3 -d -1 -p cbr -e 512 -c 2 -a 0 -i 40 -k AGT 
- -t 10.248850389 -s 3 -d -1 -p cbr -e 512 -c 2 -a 0 -i 40 -k AGT
h -t 10.248850389 -s 3 -d -1 -p cbr -e 512 -c 2 -a 0 -i 40 -k AGT
+ -t 10.415982941 -s 3 -d -1 -p cbr -e 512 -c 2 -a 0 -i 41 -k AGT 
- -t 10.415982941 -s 3 -d -1 -p cbr -e 512 -c 2 -a 0 -i 41 -k AGT
h -t 10.415982941 -s 3 -d -1 -p cbr -e 512 -c 2 -a 0 -i 41 -k AGT
+ -t 10.540603640 -s 3 -d -1 -p cbr -e 512 -c 2 -a 0 -i 42 -k AGT 
- -t 10.540603640 -s 3 -d -1 -p cbr -e 512 -c 2 -a 0 -i 42 -k AGT
h -t 10.540603640 -s 3 -d -1 -p cbr -e 512 -c 2 -a 0 -i 42 -k AGT
+ -t 10.774328419 -s 3 -d -1 -p cbr -e 512 -c 2 -a 0 -i 43 -k AGT 
- -t 10.774328419 -s 3 -d -1 -p cbr -e 512 -c 2 -a 0 -i 43 -k AGT
h -t 10.774328419 -s 3 -d -1 -p cbr -e 512 -c 2 -a 0 -i 43 -k AGT
+ -t 10.925727167 -s 3 -d -1 -p cbr -e 512 -c 2 -a 0 -i 44 -k AGT 
- -t 10.925727167 -s 3 -d -1 -p cbr -e 512 -c 2 -a 0 -i 44 -k AGT
h -t 10.925727167 -s 3 -d -1 -p cbr -e 512 -c 2 -a 0 -i 44 -k AGT
+ -t 11.165461812 -s 3 -d -1 -p cbr -e 512 -c 2 -a 0 -i 45 -k AGT 
- -t 11.165461812 -s 3 -d -1 -p cbr -e 512 -c 2 -a 0 -i 45 -k AGT
h -t 11.165461812 -s 3 -d -1 -p cbr -e 512 -c 2 -a 0 -i 45 -k AGT
n -t 11.350251 -s 0 -x 278.634778 -y 479.083884 -U 0.000000 -V 0.000000 -T 0.000000
+ -t 11.374426205 -s 3 -d -1 -p cbr -e 512 -c 2 -a 0 -i 46 -k AGT 
- -t 11.374426205 -s 3 -d -1 -p cbr -e 512 -c 2 -a 0 -i 46 -k AGT
h -t 11.374426205 -s 3 -d -1 -p cbr -e 512 -c 2 -a 0 -i 46 -k AGT
+ -t 11.649757340 -s 3 -d -1 -p cbr -e 512 -c 2 -a 0 -i 47 -k AGT 
- -t 11.649757340 -s 3 -d -1 -p cbr -e 512 -c 2 -a 0 -i 47 -k AGT
h -t 11.649757340 -s 3 -d -1 -p cbr -e 512 -c 2 -a 0 -i 47 -k AGT
+ -t 11.802122169 -s 3 -d -1 -p cbr -e 512 -c 2 -a 0 -i 48 -k AGT 
- -t 11.802122169 -s 3 -d -1 -p cbr -e 512 -c 2 -a 0 -i 48 -k AGT
h -t 11.802122169 -s 3 -d -1 -p cbr -e 512 -c 2 -a 0 -i 48 -k AGT
+ -t 12.013090104 -s 3 -d -1 -p cbr -e 512 -c 2 -a 0 -i 49 -k AGT 
- -t 12.013090104 -s 3 -d -1 -p cbr -e 512 -c 2 -a 0 -i 49 -k AGT
h -t 12.013090104 -s 3 -d -1 -p cbr -e 512 -c 2 -a 0 -i 49 -k AGT
+ -t 12.198227560 -s 3 -d -1 -p cbr -e 512 -c 2 -a 0 -i 50 -k AGT 
- -t 12.198227560 -s 3 -d -1 -p cbr -e 512 -c 2 -a 0 -i 50 -k AGT
h -t 12.198227560 -s 3 -d -1 -p cbr -e 512 -c 2 -a 0 -i 50 -k AGT
+ -t 12.303739054 -s 3 -d -1 -p cbr -e 512 -c 2 -a 0 -i 51 -k AGT 
- -t 12.303739054 -s 3 -d -1 -p cbr -e 512 -c 2 -a 0 -i 51 -k AGT
h -t 12.303739054 -s 3 -d -1 -p cbr -e 512 -c 2 -a 0 -i 51 -k AGT
n -t 12.350251 -s 0 -x 278.634778 -y 479.083884 -U -48.780423 -V -3.895458 -T 4.483043
+ -t 12.469202454 -s 3 -d -1 -p cbr -e 512 -c 2 -a 0 -i 52 -k AGT 
- -t 12.469202454 -s 3 -d -1 -p cbr -e 512 -c 2 -a 0 -i 52 -k AGT
h -t 12.469202454 -s 3 -d -1 -p cbr -e 512 -c 2 -a 0 -i 52 -k AGT
+ -t 12.606445305 -s 3 -d -1 -p cbr -e 512 -c 2 -a 0 -i 53 -k AGT 
- -t 12.606445305 -s 3 -d -1 -p cbr -e 512 -c 2 -a 0 -i 53 -k AGT
h -t 12.606445305 -s 3 -d -1 -p cbr -e 512 -c 2 -a 0 -i 53 -k AGT
+ -t 12.863442725 -s 3 -d -1 -p cbr -e 512 -c 2 -a 0 -i 54 -k AGT 
- -t 12.863442725 -s 3 -d -1 -p cbr -e 512 -c 2 -a 0 -i 54 -k AGT
h -t 12.863442725 -s 3 -d -1 -p cbr -e 512 -c 2 -a 0 -i 54 -k AGT
+ -t 13.152805963 -s 3 -d -1 -p cbr -e 512 -c 2 -a 0 -i 55 -k AGT 
- -t 13.152805963 -s 3 -d -1 -p cbr -e 512 -c 2 -a 0 -i 55 -k AGT
h -t 13.152805963 -s 3 -d -1 -p cbr -e 512 -c 2 -a 0 -i 55 -k AGT
+ -t 13.407345111 -s 3 -d -1 -p cbr -e 512 -c 2 -a 0 -i 56 -k AGT 
- -t 13.407345111 -s 3 -d -1 -p cbr -e 512 -c 2 -a 0 -i 56 -k AGT
h -t 13.407345111 -s 3 -d -1 -p cbr -e 512 -c 2 -a 0 -i 56 -k AGT
+ -t 13.548691916 -s 3 -d -1 -p cbr -e 512 -c 2 -a 0 -i 57 -k AGT 
- -t 13.548691916 -s 3 -d -1 -p cbr -e 512 -c 2 -a 0 -i 57 -k AGT
h -t 13.548691916 -s 3 -d -1 -p cbr -e 512 -c 2 -a 0 -i 57 -k AGT
+ -t 13.787679369 -s 3 -d -1 -p cbr -e 512 -c 2 -a 0 -i 58 -k AGT 
- -t 13.787679369 -s 3 -d -1 -p cbr -e 512 -c 2 -a 0 -i 58 -k AGT
h -t 13.787679369 -s 3 -d -1 -p cbr -e 512 -c 2 -a 0 -i 58 -k AGT
+ -t 13.787679369 -s 3 -d -1 -p AODV -e 52 -c 2 -a 0 -i 0 -k RTR 
- -t 13.787679369 -s 3 -d -1 -p AODV -e 52 -c 2 -a 0 -i 0 -k RTR
h -t 13.787679369 -s 3 -d -1 -p AODV -e 52 -c 2 -a 0 -i 0 -k RTR
+ -t 13.787874369 -s 3 -d -1 -p AODV -e 110 -c 2 -a 0 -i 0 -k MAC 
- -t 13.787874369 -s 3 -d -1 -p AODV -e 110 -c 2 -a 0 -i 0 -k MAC
h -t 13.787874369 -s 3 -d -1 -p AODV -e 110 -c 2 -a 0 -i 0 -k MAC
+ -t 13.923424939 -s 3 -d -1 -p cbr -e 512 -c 2 -a 0 -i 59 -k AGT 
- -t 13.923424939 -s 3 -d -1 -p cbr -e 512 -c 2 -a 0 -i 59 -k AGT
h -t 13.923424939 -s 3 -d -1 -p cbr -e 512 -c 2 -a 0 -i 59 -k AGT
+ -t 14.121769279 -s 3 -d -1 -p cbr -e 512 -c 2 -a 0 -i 60 -k AGT 
- -t 14.121769279 -s 3 -d -1 -p cbr -e 512 -c 2 -a 0 -i 60 -k AGT
h -t 14.121769279 -s 3 -d -1 -p cbr -e 512 -c 2 -a 0 -i 60 -k AGT
+ -t 14.231795960 -s 3 -d -1 -p cbr -e 512 -c 2 -a 0 -i 61 -k AGT 
- -t 14.231795960 -s 3 -d -1 -p cbr -e 512 -c 2 -a 0 -i 61 -k AGT
h -t 14.231795960 -s 3 -d -1 -p cbr -e 512 -c 2 -a 0 -i 61 -k AGT
+ -t 14.504817056 -s 3 -d -1 -p cbr -e 512 -c 2 -a 0 -i 62 -k AGT 
- -t 14.504817056 -s 3 -d -1 -p cbr -e 512 -c 2 -a 0 -i 62 -k AGT
h -t 14.504817056 -s 3 -d -1 -p cbr -e 512 -c 2 -a 0 -i 62 -k AGT
+ -t 14.711396767 -s 3 -d -1 -p cbr -e 512 -c 2 -a 0 -i 63 -k AGT 
- -t 14.711396767 -s 3 -d -1 -p cbr -e 512 -c 2 -a 0 -i 63 -k AGT
h -t 14.711396767 -s 3 -d -1 -p cbr -e 512 -c 2 -a 0 -i 63 -k AGT
+ -t 14.958414992 -s 3 -d -1 -p cbr -e 512 -c 2 -a 0 -i 64 -k AGT 
- -t 14.958414992 -s 3 -d -1 -p cbr -e 512 -c 2 -a 0 -i 64 -k AGT
h -t 14.958414992 -s 3 -d -1 -p cbr -e 512 -c 2 -a 0 -i 64 -k AGT
d -t 14.958414992 -s 3 -d -1 -p cbr -e 532 -c 2 -a 0 -i 0 -k RTR
+ -t 15.142659002 -s 3 -d -1 -p cbr -e 512 -c 2 -a 0 -i 65 -k AGT 
- -t 15.142659002 -s 3 -d -1 -p cbr -e 512 -c 2 -a 0 -i 65 -k AGT
h -t 15.142659002 -s 3 -d -1 -p cbr -e 512 -c 2 -a 0 -i 65 -k AGT
d -t 15.142659002 -s 3 -d -1 -p cbr -e 532 -c 2 -a 0 -i 1 -k RTR
+ -t 15.260299031 -s 3 -d -1 -p cbr -e 512 -c 2 -a 0 -i 66 -k AGT 
- -t 15.260299031 -s 3 -d -1 -p cbr -e 512 -c 2 -a 0 -i 66 -k AGT
h -t 15.260299031 -s 3 -d -1 -p cbr -e 512 -c 2 -a 0 -i 66 -k AGT
d -t 15.260299031 -s 3 -d -1 -p cbr -e 532 -c 2 -a 0 -i 2 -k RTR
+ -t 15.523179062 -s 3 -d -1 -p cbr -e 512 -c 2 -a 0 -i 67 -k AGT 
- -t 15.523179062 -s 3 -d -1 -p cbr -e 512 -c 2 -a 0 -i 67 -k AGT
h -t 15.523179062 -s 3 -d -1 -p cbr -e 512 -c 2 -a 0 -i 67 -k AGT
d -t 15.523179062 -s 3 -d -1 -p cbr -e 532 -c 2 -a 0 -i 3 -k RTR
+ -t 15.803748591 -s 3 -d -1 -p cbr -e 512 -c 2 -a 0 -i 68 -k AGT 
- -t 15.803748591 -s 3 -d -1 -p cbr -e 512 -c 2 -a 0 -i 68 -k AGT
h -t 15.803748591 -s 3 -d -1 -p cbr -e 512 -c 2 -a 0 -i 68 -k AGT
d -t 15.803748591 -s 3 -d -1 -p cbr -e 532 -c 2 -a 0 -i 4 -k RTR
+ -t 16.049356945 -s 3 -d -1 -p cbr -e 512 -c 2 -a 0 -i 69 -k AGT 
- -t 16.049356945 -s 3 -d -1 -p cbr -e 512 -c 2 -a 0 -i 69 -k AGT
h -t 16.049356945 -s 3 -d -1 -p cbr -e 512 -c 2 -a 0 -i 69 -k AGT
d -t 16.049356945 -s 3 -d -1 -p cbr -e 532 -c 2 -a 0 -i 5 -k RTR
+ -t 16.324286206 -s 3 -d -1 -p cbr -e 512 -c 2 -a 0 -i 70 -k AGT 
- -t 16.324286206 -s 3 -d -1 -p cbr -e 512 -c 2 -a 0 -i 70 -k AGT
h -t 16.324286206 -s 3 -d -1 -p cbr -e 512 -c 2 -a 0 -i 70 -k AGT
d -t 16.324286206 -s 3 -d -1 -p cbr -e 532 -c 2 -a 0 -i 6 -k RTR
+ -t 16.541508702 -s 3 -d -1 -p cbr -e 512 -c 2 -a 0 -i 71 -k AGT 
- -t 16.541508702 -s 3 -d -1 -p cbr -e 512 -c 2 -a 0 -i 71 -k AGT
h -t 16.541508702 -s 3 -d -1 -p cbr -e 512 -c 2 -a 0 -i 71 -k AGT
d -t 16.541508702 -s 3 -d -1 -p cbr -e 532 -c 2 -a 0 -i 7 -k RTR
+ -t 16.788676808 -s 3 -d -1 -p cbr -e 512 -c 2 -a 0 -i 72 -k AGT 
- -t 16.788676808 -s 3 -d -1 -p cbr -e 512 -c 2 -a 0 -i 72 -k AGT
h -t 16.788676808 -s 3 -d -1 -p cbr -e 512 -c 2 -a 0 -i 72 -k AGT
d -t 16.788676808 -s 3 -d -1 -p cbr -e 532 -c 2 -a 0 -i 8 -k RTR
n -t 16.833293 -s 0 -x 59.950054 -y 461.620377 -U 0.000000 -V 0.000000 -T 0.000000
+ -t 17.049079180 -s 3 -d -1 -p cbr -e 512 -c 2 -a 0 -i 73 -k AGT 
- -t 17.049079180 -s 3 -d -1 -p cbr -e 512 -c 2 -a 0 -i 73 -k AGT
h -t 17.049079180 -s 3 -d -1 -p cbr -e 512 -c 2 -a 0 -i 73 -k AGT
d -t 17.049079180 -s 3 -d -1 -p cbr -e 532 -c 2 -a 0 -i 9 -k RTR
+ -t 17.220290897 -s 3 -d -1 -p cbr -e 512 -c 2 -a 0 -i 74 -k AGT 
- -t 17.220290897 -s 3 -d -1 -p cbr -e 512 -c 2 -a 0 -i 74 -k AGT
h -t 17.220290897 -s 3 -d -1 -p cbr -e 512 -c 2 -a 0 -i 74 -k AGT
d -t 17.220290897 -s 3 -d -1 -p cbr -e 532 -c 2 -a 0 -i 10 -k RTR
+ -t 17.431972614 -s 3 -d -1 -p cbr -e 512 -c 2 -a 0 -i 75 -k AGT 
- -t 17.431972614 -s 3 -d -1 -p cbr -e 512 -c 2 -a 0 -i 75 -k AGT
h -t 17.431972614 -s 3 -d -1 -p cbr -e 512 -c 2 -a 0 -i 75 -k AGT
d -t 17.431972614 -s 3 -d -1 -p cbr -e 532 -c 2 -a 0 -i 11 -k RTR
+ -t 17.695089082 -s 3 -d -1 -p cbr -e 512 -c 2 -a 0 -i 76 -k AGT 
- -t 17.695089082 -s 3 -d -1 -p cbr -e 512 -c 2 -a 0 -i 76 -k AGT
h -t 17.695089082 -s 3 -d -1 -p cbr -e 512 -c 2 -a 0 -i 76 -k AGT
d -t 17.695089082 -s 3 -d -1 -p cbr -e 532 -c 2 -a 0 -i 12 -k RTR
n -t 17.833293 -s 0 -x 59.950054 -y 461.620377 -U 11.883525 -V -28.371237 -T 5.464710
+ -t 17.951844092 -s 3 -d -1 -p cbr -e 512 -c 2 -a 0 -i 77 -k AGT 
- -t 17.951844092 -s 3 -d -1 -p cbr -e 512 -c 2 -a 0 -i 77 -k AGT
h -t 17.951844092 -s 3 -d -1 -p cbr -e 512 -c 2 -a 0 -i 77 -k AGT
d -t 17.951844092 -s 3 -d -1 -p cbr -e 532 -c 2 -a 0 -i 13 -k RTR
+ -t 18.184549274 -s 3 -d -1 -p cbr -e 512 -c 2 -a 0 -i 78 -k AGT 
- -t 18.184549274 -s 3 -d -1 -p cbr -e 512 -c 2 -a 0 -i 78 -k AGT
h -t 18.184549274 -s 3 -d -1 -p cbr -e 512 -c 2 -a 0 -i 78 -k AGT
d -t 18.184549274 -s 3 -d -1 -p cbr -e 532 -c 2 -a 0 -i 14 -k RTR
+ -t 18.314546960 -s 3 -d -1 -p cbr -e 512 -c 2 -a 0 -i 79 -k AGT 
- -t 18.314546960 -s 3 -d -1 -p cbr -e 512 -c 2 -a 0 -i 79 -k AGT
h -t 18.314546960 -s 3 -d -1 -p cbr -e 512 -c 2 -a 0 -i 79 -k AGT
d -t 18.314546960 -s 3 -d -1 -p cbr -e 532 -c 2 -a 0 -i 15 -k RTR
+ -t 18.495822464 -s 3 -d -1 -p cbr -e 512 -c 2 -a 0 -i 80 -k AGT 
- -t 18.495822464 -s 3 -d -1 -p cbr -e 512 -c 2 -a 0 -i 80 -k AGT
h -t 18.495822464 -s 3 -d -1 -p cbr -e 512 -c 2 -a 0 -i 80 -k AGT
d -t 18.495822464 -s 3 -d -1 -p cbr -e 532 -c 2 -a 0 -i 16 -k RTR
+ -t 18.705047067 -s 3 -d -1 -p cbr -e 512 -c 2 -a 0 -i 81 -k AGT 
- -t 18.705047067 -s 3 -d -1 -p cbr -e 512 -c 2 -a 0 -i 81 -k AGT
h -t 18.705047067 -s 3 -d -1 -p cbr -e 512 -c 2 -a 0 -i 81 -k AGT
d -t 18.705047067 -s 3 -d -1 -p cbr -e 532 -c 2 -a 0 -i 17 -k RTR
+ -t 18.879767837 -s 3 -d -1 -p cbr -e 512 -c 2 -a 0 -i 82 -k AGT 
- -t 18.879767837 -s 3 -d -1 -p cbr -e 512 -c 2 -a 0 -i 82 -k AGT
h -t 18.879767837 -s 3 -d -1 -p cbr -e 512 -c 2 -a 0 -i 82 -k AGT
d -t 18.879767837 -s 3 -d -1 -p cbr -e 532 -c 2 -a 0 -i 18 -k RTR
+ -t 18.979802745 -s 3 -d -1 -p cbr -e 512 -c 2 -a 0 -i 83 -k AGT 
- -t 18.979802745 -s 3 -d -1 -p cbr -e 512 -c 2 -a 0 -i 83 -k AGT
h -t 18.979802745 -s 3 -d -1 -p cbr -e 512 -c 2 -a 0 -i 83 -k AGT
d -t 18.979802745 -s 3 -d -1 -p cbr -e 532 -c 2 -a 0 -i 19 -k RTR
+ -t 19.096488723 -s 3 -d -1 -p cbr -e 512 -c 2 -a 0 -i 84 -k AGT 
- -t 19.096488723 -s 3 -d -1 -p cbr -e 512 -c 2 -a 0 -i 84 -k AGT
h -t 19.096488723 -s 3 -d -1 -p cbr -e 512 -c 2 -a 0 -i 84 -k AGT
d -t 19.096488723 -s 3 -d -1 -p cbr -e 532 -c 2 -a 0 -i 20 -k RTR
+ -t 19.262931608 -s 3 -d -1 -p cbr -e 512 -c 2 -a 0 -i 85 -k AGT 
- -t 19.262931608 -s 3 -d -1 -p cbr -e 512 -c 2 -a 0 -i 85 -k AGT
h -t 19.262931608 -s 3 -d -1 -p cbr -e 512 -c 2 -a 0 -i 85 -k AGT
d -t 19.262931608 -s 3 -d -1 -p cbr -e 532 -c 2 -a 0 -i 21 -k RTR
+ -t 19.502069569 -s 3 -d -1 -p cbr -e 512 -c 2 -a 0 -i 86 -k AGT 
- -t 19.502069569 -s 3 -d -1 -p cbr -e 512 -c 2 -a 0 -i 86 -k AGT
h -t 19.502069569 -s 3 -d -1 -p cbr -e 512 -c 2 -a 0 -i 86 -k AGT
d -t 19.502069569 -s 3 -d -1 -p cbr -e 532 -c 2 -a 0 -i 22 -k RTR
+ -t 19.784457410 -s 3 -d -1 -p cbr -e 512 -c 2 -a 0 -i 87 -k AGT 
- -t 19.784457410 -s 3 -d -1 -p cbr -e 512 -c 2 -a 0 -i 87 -k AGT
h -t 19.784457410 -s 3 -d -1 -p cbr -e 512 -c 2 -a 0 -i 87 -k AGT
d -t 19.784457410 -s 3 -d -1 -p cbr -e 532 -c 2 -a 0 -i 23 -k RTR
+ -t 19.891015881 -s 3 -d -1 -p cbr -e 512 -c 2 -a 0 -i 88 -k AGT 
- -t 19.891015881 -s 3 -d -1 -p cbr -e 512 -c 2 -a 0 -i 88 -k AGT
h -t 19.891015881 -s 3 -d -1 -p cbr -e 512 -c 2 -a 0 -i 88 -k AGT
d -t 19.891015881 -s 3 -d -1 -p cbr -e 532 -c 2 -a 0 -i 24 -k RTR
+ -t 20.064065346 -s 3 -d -1 -p cbr -e 512 -c 2 -a 0 -i 89 -k AGT 
- -t 20.064065346 -s 3 -d -1 -p cbr -e 512 -c 2 -a 0 -i 89 -k AGT
h -t 20.064065346 -s 3 -d -1 -p cbr -e 512 -c 2 -a 0 -i 89 -k AGT
d -t 20.064065346 -s 3 -d -1 -p cbr -e 532 -c 2 -a 0 -i 25 -k RTR
+ -t 20.225063140 -s 3 -d -1 -p cbr -e 512 -c 2 -a 0 -i 90 -k AGT 
- -t 20.225063140 -s 3 -d -1 -p cbr -e 512 -c 2 -a 0 -i 90 -k AGT
h -t 20.225063140 -s 3 -d -1 -p cbr -e 512 -c 2 -a 0 -i 90 -k AGT
d -t 20.225063140 -s 3 -d -1 -p cbr -e 532 -c 2 -a 0 -i 26 -k RTR
+ -t 20.325733194 -s 3 -d -1 -p cbr -e 512 -c 2 -a 0 -i 91 -k AGT 
- -t 20.325733194 -s 3 -d -1 -p cbr -e 512 -c 2 -a 0 -i 91 -k AGT
h -t 20.325733194 -s 3 -d -1 -p cbr -e 512 -c 2 -a 0 -i 91 -k AGT
d -t 20.325733194 -s 3 -d -1 -p cbr -e 532 -c 2 -a 0 -i 27 -k RTR
+ -t 20.490080157 -s 3 -d -1 -p cbr -e 512 -c 2 -a 0 -i 92 -k AGT 
- -t 20.490080157 -s 3 -d -1 -p cbr -e 512 -c 2 -a 0 -i 92 -k AGT
h -t 20.490080157 -s 3 -d -1 -p cbr -e 512 -c 2 -a 0 -i 92 -k AGT
d -t 20.490080157 -s 3 -d -1 -p cbr -e 532 -c 2 -a 0 -i 28 -k RTR
+ -t 20.766331652 -s 3 -d -1 -p cbr -e 512 -c 2 -a 0 -i 93 -k AGT 
- -t 20.766331652 -s 3 -d -1 -p cbr -e 512 -c 2 -a 0 -i 93 -k AGT
h -t 20.766331652 -s 3 -d -1 -p cbr -e 512 -c 2 -a 0 -i 93 -k AGT
d -t 20.766331652 -s 3 -d -1 -p cbr -e 532 -c 2 -a 0 -i 29 -k RTR
d -t 21.000000000 -s 3 -d -1 -p cbr -e 532 -c 2 -a 0 -i 30 -k RTR
d -t 21.000000000 -s 3 -d -1 -p cbr -e 532 -c 2 -a 0 -i 31 -k RTR
d -t 21.000000000 -s 3 -d -1 -p cbr -e 532 -c 2 -a 0 -i 32 -k RTR
d -t 21.000000000 -s 3 -d -1 -p cbr -e 532 -c 2 -a 0 -i 33 -k RTR
d -t 21.000000000 -s 3 -d -1 -p cbr -e 532 -c 2 -a 0 -i 34 -k RTR
d -t 21.000000000 -s 3 -d -1 -p cbr -e 532 -c 2 -a 0 -i 35 -k RTR
d -t 21.000000000 -s 3 -d -1 -p cbr -e 532 -c 2 -a 0 -i 36 -k RTR
d -t 21.000000000 -s 3 -d -1 -p cbr -e 532 -c 2 -a 0 -i 37 -k RTR
d -t 21.000000000 -s 3 -d -1 -p cbr -e 532 -c 2 -a 0 -i 38 -k RTR
d -t 21.000000000 -s 3 -d -1 -p cbr -e 532 -c 2 -a 0 -i 39 -k RTR
d -t 21.000000000 -s 3 -d -1 -p cbr -e 532 -c 2 -a 0 -i 40 -k RTR
d -t 21.000000000 -s 3 -d -1 -p cbr -e 532 -c 2 -a 0 -i 41 -k RTR
d -t 21.000000000 -s 3 -d -1 -p cbr -e 532 -c 2 -a 0 -i 42 -k RTR
d -t 21.000000000 -s 3 -d -1 -p cbr -e 532 -c 2 -a 0 -i 43 -k RTR
d -t 21.000000000 -s 3 -d -1 -p cbr -e 532 -c 2 -a 0 -i 44 -k RTR
d -t 21.000000000 -s 3 -d -1 -p cbr -e 532 -c 2 -a 0 -i 45 -k RTR
d -t 21.000000000 -s 3 -d -1 -p cbr -e 532 -c 2 -a 0 -i 46 -k RTR
d -t 21.000000000 -s 3 -d -1 -p cbr -e 532 -c 2 -a 0 -i 47 -k RTR
d -t 21.000000000 -s 3 -d -1 -p cbr -e 532 -c 2 -a 0 -i 48 -k RTR
d -t 21.000000000 -s 3 -d -1 -p cbr -e 532 -c 2 -a 0 -i 49 -k RTR
d -t 21.000000000 -s 3 -d -1 -p cbr -e 532 -c 2 -a 0 -i 50 -k RTR
d -t 21.000000000 -s 3 -d -1 -p cbr -e 532 -c 2 -a 0 -i 51 -k RTR
d -t 21.000000000 -s 3 -d -1 -p cbr -e 532 -c 2 -a 0 -i 52 -k RTR
d -t 21.000000000 -s 3 -d -1 -p cbr -e 532 -c 2 -a 0 -i 53 -k RTR
d -t 21.000000000 -s 3 -d -1 -p cbr -e 532 -c 2 -a 0 -i 54 -k RTR
d -t 21.000000000 -s 3 -d -1 -p cbr -e 532 -c 2 -a 0 -i 55 -k RTR
d -t 21.000000000 -s 3 -d -1 -p cbr -e 532 -c 2 -a 0 -i 56 -k RTR
d -t 21.000000000 -s 3 -d -1 -p cbr -e 532 -c 2 -a 0 -i 57 -k RTR
d -t 21.000000000 -s 3 -d -1 -p cbr -e 532 -c 2 -a 0 -i 58 -k RTR
d -t 21.000000000 -s 3 -d -1 -p cbr -e 532 -c 2 -a 0 -i 59 -k RTR
d -t 21.000000000 -s 3 -d -1 -p cbr -e 532 -c 2 -a 0 -i 60 -k RTR
d -t 21.000000000 -s 3 -d -1 -p cbr -e 532 -c 2 -a 0 -i 61 -k RTR
d -t 21.000000000 -s 3 -d -1 -p cbr -e 532 -c 2 -a 0 -i 62 -k RTR
d -t 21.000000000 -s 3 -d -1 -p cbr -e 532 -c 2 -a 0 -i 63 -k RTR
d -t 21.000000000 -s 3 -d -1 -p cbr -e 532 -c 2 -a 0 -i 64 -k RTR
d -t 21.000000000 -s 3 -d -1 -p cbr -e 532 -c 2 -a 0 -i 65 -k RTR
d -t 21.000000000 -s 3 -d -1 -p cbr -e 532 -c 2 -a 0 -i 66 -k RTR
d -t 21.000000000 -s 3 -d -1 -p cbr -e 532 -c 2 -a 0 -i 67 -k RTR
d -t 21.000000000 -s 3 -d -1 -p cbr -e 532 -c 2 -a 0 -i 68 -k RTR
d -t 21.000000000 -s 3 -d -1 -p cbr -e 532 -c 2 -a 0 -i 69 -k RTR
d -t 21.000000000 -s 3 -d -1 -p cbr -e 532 -c 2 -a 0 -i 70 -k RTR
d -t 21.000000000 -s 3 -d -1 -p cbr -e 532 -c 2 -a 0 -i 71 -k RTR
d -t 21.000000000 -s 3 -d -1 -p cbr -e 532 -c 2 -a 0 -i 72 -k RTR
d -t 21.000000000 -s 3 -d -1 -p cbr -e 532 -c 2 -a 0 -i 73 -k RTR
d -t 21.000000000 -s 3 -d -1 -p cbr -e 532 -c 2 -a 0 -i 74 -k RTR
d -t 21.000000000 -s 3 -d -1 -p cbr -e 532 -c 2 -a 0 -i 75 -k RTR
d -t 21.000000000 -s 3 -d -1 -p cbr -e 532 -c 2 -a 0 -i 76 -k RTR
d -t 21.000000000 -s 3 -d -1 -p cbr -e 532 -c 2 -a 0 -i 77 -k RTR
d -t 21.000000000 -s 3 -d -1 -p cbr -e 532 -c 2 -a 0 -i 78 -k RTR
d -t 21.000000000 -s 3 -d -1 -p cbr -e 532 -c 2 -a 0 -i 79 -k RTR
d -t 21.000000000 -s 3 -d -1 -p cbr -e 532 -c 2 -a 0 -i 80 -k RTR
d -t 21.000000000 -s 3 -d -1 -p cbr -e 532 -c 2 -a 0 -i 81 -k RTR
d -t 21.000000000 -s 3 -d -1 -p cbr -e 532 -c 2 -a 0 -i 82 -k RTR
d -t 21.000000000 -s 3 -d -1 -p cbr -e 532 -c 2 -a 0 -i 83 -k RTR
d -t 21.000000000 -s 3 -d -1 -p cbr -e 532 -c 2 -a 0 -i 84 -k RTR
d -t 21.000000000 -s 3 -d -1 -p cbr -e 532 -c 2 -a 0 -i 85 -k RTR
d -t 21.000000000 -s 3 -d -1 -p cbr -e 532 -c 2 -a 0 -i 86 -k RTR
d -t 21.000000000 -s 3 -d -1 -p cbr -e 532 -c 2 -a 0 -i 87 -k RTR
d -t 21.000000000 -s 3 -d -1 -p cbr -e 532 -c 2 -a 0 -i 88 -k RTR
d -t 21.000000000 -s 3 -d -1 -p cbr -e 532 -c 2 -a 0 -i 89 -k RTR
d -t 21.000000000 -s 3 -d -1 -p cbr -e 532 -c 2 -a 0 -i 90 -k RTR
d -t 21.000000000 -s 3 -d -1 -p cbr -e 532 -c 2 -a 0 -i 91 -k RTR
d -t 21.000000000 -s 3 -d -1 -p cbr -e 532 -c 2 -a 0 -i 92 -k RTR
d -t 21.000000000 -s 3 -d -1 -p cbr -e 532 -c 2 -a 0 -i 93 -k RTR
+ -t 21.042330779 -s 3 -d -1 -p cbr -e 512 -c 2 -a 0 -i 94 -k AGT 
- -t 21.042330779 -s 3 -d -1 -p cbr -e 512 -c 2 -a 0 -i 94 -k AGT
h -t 21.042330779 -s 3 -d -1 -p cbr -e 512 -c 2 -a 0 -i 94 -k AGT
+ -t 21.303497146 -s 3 -d -1 -p cbr -e 512 -c 2 -a 0 -i 95 -k AGT 
- -t 21.303497146 -s 3 -d -1 -p cbr -e 512 -c 2 -a 0 -i 95 -k AGT
h -t 21.303497146 -s 3 -d -1 -p cbr -e 512 -c 2 -a 0 -i 95 -k AGT
+ -t 21.437740948 -s 3 -d -1 -p cbr -e 512 -c 2 -a 0 -i 96 -k AGT 
- -t 21.437740948 -s 3 -d -1 -p cbr -e 512 -c 2 -a 0 -i 96 -k AGT
h -t 21.437740948 -s 3 -d -1 -p cbr -e 512 -c 2 -a 0 -i 96 -k AGT
+ -t 21.544129234 -s 3 -d -1 -p cbr -e 512 -c 2 -a 0 -i 97 -k AGT 
- -t 21.544129234 -s 3 -d -1 -p cbr -e 512 -c 2 -a 0 -i 97 -k AGT
h -t 21.544129234 -s 3 -d -1 -p cbr -e 512 -c 2 -a 0 -i 97 -k AGT
+ -t 21.795176327 -s 3 -d -1 -p cbr -e 512 -c 2 -a 0 -i 98 -k AGT 
- -t 21.795176327 -s 3 -d -1 -p cbr -e 512 -c 2 -a 0 -i 98 -k AGT
h -t 21.795176327 -s 3 -d -1 -p cbr -e 512 -c 2 -a 0 -i 98 -k AGT
+ -t 22.018247652 -s 3 -d -1 -p cbr -e 512 -c 2 -a 0 -i 99 -k AGT 
- -t 22.018247652 -s 3 -d -1 -p cbr -e 512 -c 2 -a 0 -i 99 -k AGT
h -t 22.018247652 -s 3 -d -1 -p cbr -e 512 -c 2 -a 0 -i 99 -k AGT
+ -t 22.276173326 -s 3 -d -1 -p cbr -e 512 -c 2 -a 0 -i 100 -k AGT 
- -t 22.276173326 -s 3 -d -1 -p cbr -e 512 -c 2 -a 0 -i 100 -k AGT
h -t 22.276173326 -s 3 -d -1 -p cbr -e 512 -c 2 -a 0 -i 100 -k AGT
+ -t 22.480322702 -s 3 -d -1 -p cbr -e 512 -c 2 -a 0 -i 101 -k AGT 
- -t 22.480322702 -s 3 -d -1 -p cbr -e 512 -c 2 -a 0 -i 101 -k AGT
h -t 22.480322702 -s 3 -d -1 -p cbr -e 512 -c 2 -a 0 -i 101 -k AGT
+ -t 22.670574993 -s 3 -d -1 -p cbr -e 512 -c 2 -a 0 -i 102 -k AGT 
- -t 22.670574993 -s 3 -d -1 -p cbr -e 512 -c 2 -a 0 -i 102 -k AGT
h -t 22.670574993 -s 3 -d -1 -p cbr -e 512 -c 2 -a 0 -i 102 -k AGT
+ -t 22.812098018 -s 3 -d -1 -p cbr -e 512 -c 2 -a 0 -i 103 -k AGT 
- -t 22.812098018 -s 3 -d -1 -p cbr -e 512 -c 2 -a 0 -i 103 -k AGT
h -t 22.812098018 -s 3 -d -1 -p cbr -e 512 -c 2 -a 0 -i 103 -k AGT
+ -t 22.915297454 -s 3 -d -1 -p cbr -e 512 -c 2 -a 0 -i 104 -k AGT 
- -t 22.915297454 -s 3 -d -1 -p cbr -e 512 -c 2 -a 0 -i 104 -k AGT
h -t 22.915297454 -s 3 -d -1 -p cbr -e 512 -c 2 -a 0 -i 104 -k AGT
+ -t 23.103280335 -s 3 -d -1 -p cbr -e 512 -c 2 -a 0 -i 105 -k AGT 
- -t 23.103280335 -s 3 -d -1 -p cbr -e 512 -c 2 -a 0 -i 105 -k AGT
h -t 23.103280335 -s 3 -d -1 -p cbr -e 512 -c 2 -a 0 -i 105 -k AGT