M 0.0 nn 5 x 530 y 530 rp AODV
M 0.0 sc setdes500x500.tcl cp cbr5node.tcl seed 1.0
M 0.0 prop Propagation/TwoRayGround ant Antenna/OmniAntenna
M 0.00000 0 (336.71, 360.83, 0.00), (206.24, 435.35), 18.03
M 0.00000 1 (29.41, 14.59, 0.00), (67.35, 399.51), 15.80
M 0.00000 2 (71.90, 457.20, 0.00), (77.99, 27.25), 17.09
s 0.000000000 _0_ RTR  --- 0 AODV 44 [0 0 0 0] [energy 1.682000 ei 0.000 es 0.000 et 0.000 er 0.000] ------- [0:255 -1:255 1 0] [0x1 1 [0 2] 4.000000] (HELLO)
s 0.000000000 _1_ RTR  --- 0 AODV 44 [0 0 0 0] [energy 1.682000 ei 0.000 es 0.000 et 0.000 er 0.000] ------- [1:255 -1:255 1 0] [0x1 1 [1 2] 4.000000] (HELLO)
s 0.000000000 _2_ RTR  --- 0 AODV 44 [0 0 0 0] [energy 1.682000 ei 0.000 es 0.000 et 0.000 er 0.000] ------- [2:255 -1:255 1 0] [0x1 1 [2 2] 4.000000] (HELLO)
s 0.000000000 _3_ RTR  --- 0 AODV 44 [0 0 0 0] [energy 1.682000 ei 0.000 es 0.000 et 0.000 er 0.000] ------- [3:255 -1:255 1 0] [0x1 1 [3 2] 4.000000] (HELLO)
s 0.000000000 _4_ RTR  --- 0 AODV 44 [0 0 0 0] [energy 1.682000 ei 0.000 es 0.000 et 0.000 er 0.000] ------- [4:255 -1:255 1 0] [0x1 1 [4 2] 4.000000] (HELLO)
s 0.000075000 _0_ MAC  --- 0 AODV 102 [0 ffffffff 0 800] [energy 1.682000 ei 0.000 es 0.000 et 0.000 er 0.000] ------- [0:255 -1:255 1 0] [0x1 1 [0 2] 4.000000] (HELLO)
N -t 0.000076 -n 2 -e 1.681915
N -t 0.000076 -n 4 -e 1.681915
N -t 0.000076 -n 3 -e 1.681915
s 0.000235000 _1_ MAC  --- 0 AODV 102 [0 ffffffff 1 800] [energy 1.682000 ei 0.000 es 0.000 et 0.000 er 0.000] ------- [1:255 -1:255 1 0] [0x1 1 [1 2] 4.000000] (HELLO)
r 0.000891939 _2_ MAC  --- 0 AODV 44 [0 ffffffff 0 800] [energy 1.681915 ei 0.000 es 0.000 et 0.000 er 0.000] ------- [0:255 -1:255 1 0] [0x1 1 [0 2] 4.000000] (HELLO)
r 0.000892214 _4_ MAC  --- 0 AODV 44 [0 ffffffff 0 800] [energy 1.681915 ei 0.000 es 0.000 et 0.000 er 0.000] ------- [0:255 -1:255 1 0] [0x1 1 [0 2] 4.000000] (HELLO)
r 0.000892320 _3_ MAC  --- 0 AODV 44 [0 ffffffff 0 800] [energy 1.681915 ei 0.000 es 0.000 et 0.000 er 0.000] ------- [0:255 -1:255 1 0] [0x1 1 [0 2] 4.000000] (HELLO)
r 0.000916939 _2_ RTR  --- 0 AODV 44 [0 ffffffff 0 800] [energy 1.681915 ei 0.000 es 0.000 et 0.000 er 0.000] ------- [0:255 -1:255 1 0] [0x1 1 [0 2] 4.000000] (HELLO)
r 0.000917214 _4_ RTR  --- 0 AODV 44 [0 ffffffff 0 800] [energy 1.681915 ei 0.000 es 0.000 et 0.000 er 0.000] ------- [0:255 -1:255 1 0] [0x1 1 [0 2] 4.000000] (HELLO)
r 0.000917320 _3_ RTR  --- 0 AODV 44 [0 ffffffff 0 800] [energy 1.681915 ei 0.000 es 0.000 et 0.000 er 0.000] ------- [0:255 -1:255 1 0] [0x1 1 [0 2] 4.000000] (HELLO)
s 0.001141939 _2_ MAC  --- 0 AODV 102 [0 ffffffff 2 800] [energy 1.681915 ei 0.000 es 0.000 et 0.000 er 0.000] ------- [2:255 -1:255 1 0] [0x1 1 [2 2] 4.000000] (HELLO)
N -t 0.001142 -n 4 -e 1.681820
N -t 0.001143 -n 0 -e 1.681631
s 0.001182320 _3_ MAC  --- 0 AODV 102 [0 ffffffff 3 800] [energy 1.681915 ei 0.000 es 0.000 et 0.000 er 0.000] ------- [3:255 -1:255 1 0] [0x1 1 [3 2] 4.000000] (HELLO)
N -t 0.001184 -n 0 -e 1.681627
D 0.001183640 _0_ MAC  COL 0 AODV 102 [0 ffffffff 2 800] [energy 1.681627 ei 0.000 es 0.000 et 0.000 er 0.000] ------- [2:255 -1:255 1 0] [0x1 1 [2 2] 4.000000] (HELLO)
r 0.001958218 _4_ MAC  --- 0 AODV 44 [0 ffffffff 2 800] [energy 1.681820 ei 0.000 es 0.000 et 0.000 er 0.000] ------- [2:255 -1:255 1 0] [0x1 1 [2 2] 4.000000] (HELLO)
r 0.001983218 _4_ RTR  --- 0 AODV 44 [0 ffffffff 2 800] [energy 1.681820 ei 0.000 es 0.000 et 0.000 er 0.000] ------- [2:255 -1:255 1 0] [0x1 1 [2 2] 4.000000] (HELLO)
D 0.001999640 _0_ MAC  COL 0 AODV 102 [0 ffffffff 3 800] [energy 1.681627 ei 0.000 es 0.000 et 0.000 er 0.000] ------- [3:255 -1:255 1 0] [0x1 1 [3 2] 4.000000] (HELLO)
s 0.002168218 _4_ MAC  --- 0 AODV 102 [0 ffffffff 4 800] [energy 1.681820 ei 0.000 es 0.000 et 0.000 er 0.000] ------- [4:255 -1:255 1 0] [0x1 1 [4 2] 4.000000] (HELLO)
N -t 0.002168 -n 2 -e 1.681539
N -t 0.002169 -n 0 -e 1.681537
r 0.002984497 _2_ MAC  --- 0 AODV 44 [0 ffffffff 4 800] [energy 1.681539 ei 0.000 es 0.000 et 0.000 er 0.000] ------- [4:255 -1:255 1 0] [0x1 1 [4 2] 4.000000] (HELLO)
r 0.002985433 _0_ MAC  --- 0 AODV 44 [0 ffffffff 4 800] [energy 1.681537 ei 0.000 es 0.000 et 0.000 er 0.000] ------- [4:255 -1:255 1 0] [0x1 1 [4 2] 4.000000] (HELLO)
r 0.003009497 _2_ RTR  --- 0 AODV 44 [0 ffffffff 4 800] [energy 1.681539 ei 0.000 es 0.000 et 0.000 er 0.000] ------- [4:255 -1:255 1 0] [0x1 1 [4 2] 4.000000] (HELLO)
r 0.003010433 _0_ RTR  --- 0 AODV 44 [0 ffffffff 4 800] [energy 1.681537 ei 0.000 es 0.000 et 0.000 er 0.000] ------- [4:255 -1:255 1 0] [0x1 1 [4 2] 4.000000] (HELLO)
s 0.750169789 _0_ RTR  --- 0 AODV 44 [0 0 0 0] [energy 1.681537 ei 0.000 es 0.000 et 0.000 er 0.000] ------- [0:255 -1:255 1 0] [0x1 1 [0 4] 4.000000] (HELLO)
s 0.750484789 _0_ MAC  --- 0 AODV 102 [0 ffffffff 0 800] [energy 1.681537 ei 0.000 es 0.000 et 0.000 er 0.000] ------- [0:255 -1:255 1 0] [0x1 1 [0 4] 4.000000] (HELLO)
N -t 0.750486 -n 2 -e 1.644082
N -t 0.750486 -n 4 -e 1.644082
r 0.751301670 _2_ MAC  --- 0 AODV 44 [0 ffffffff 0 800] [energy 1.644082 ei 0.037 es 0.000 et 0.000 er 0.000] ------- [0:255 -1:255 1 0] [0x1 1 [0 4] 4.000000] (HELLO)
r 0.751301958 _4_ MAC  --- 0 AODV 44 [0 ffffffff 0 800] [energy 1.644082 ei 0.037 es 0.000 et 0.000 er 0.000] ------- [0:255 -1:255 1 0] [0x1 1 [0 4] 4.000000] (HELLO)
r 0.751326670 _2_ RTR  --- 0 AODV 44 [0 ffffffff 0 800] [energy 1.644082 ei 0.037 es 0.000 et 0.000 er 0.000] ------- [0:255 -1:255 1 0] [0x1 1 [0 4] 4.000000] (HELLO)
r 0.751326958 _4_ RTR  --- 0 AODV 44 [0 ffffffff 0 800] [energy 1.644082 ei 0.037 es 0.000 et 0.000 er 0.000] ------- [0:255 -1:255 1 0] [0x1 1 [0 4] 4.000000] (HELLO)
s 0.757102330 _2_ RTR  --- 0 AODV 44 [0 0 0 0] [energy 1.644082 ei 0.037 es 0.000 et 0.000 er 0.000] ------- [2:255 -1:255 1 0] [0x1 1 [2 6] 4.000000] (HELLO)
s 0.757517330 _2_ MAC  --- 0 AODV 102 [0 ffffffff 2 800] [energy 1.644082 ei 0.037 es 0.000 et 0.000 er 0.000] ------- [2:255 -1:255 1 0] [0x1 1 [2 6] 4.000000] (HELLO)
N -t 0.757518 -n 4 -e 1.643690
N -t 0.757518 -n 0 -e 1.643499
r 0.758333634 _4_ MAC  --- 0 AODV 44 [0 ffffffff 2 800] [energy 1.643690 ei 0.038 es 0.000 et 0.000 er 0.000] ------- [2:255 -1:255 1 0] [0x1 1 [2 6] 4.000000] (HELLO)
r 0.758334211 _0_ MAC  --- 0 AODV 44 [0 ffffffff 2 800] [energy 1.643499 ei 0.038 es 0.000 et 0.001 er 0.000] ------- [2:255 -1:255 1 0] [0x1 1 [2 6] 4.000000] (HELLO)
r 0.758358634 _4_ RTR  --- 0 AODV 44 [0 ffffffff 2 800] [energy 1.643690 ei 0.038 es 0.000 et 0.000 er 0.000] ------- [2:255 -1:255 1 0] [0x1 1 [2 6] 4.000000] (HELLO)
r 0.758359211 _0_ RTR  --- 0 AODV 44 [0 ffffffff 2 800] [energy 1.643499 ei 0.038 es 0.000 et 0.001 er 0.000] ------- [2:255 -1:255 1 0] [0x1 1 [2 6] 4.000000] (HELLO)
s 0.794061336 _3_ RTR  --- 0 AODV 44 [0 0 0 0] [energy 1.681629 ei 0.000 es 0.000 et 0.000 er 0.000] ------- [3:255 -1:255 1 0] [0x1 1 [3 4] 4.000000] (HELLO)
s 0.794356336 _3_ MAC  --- 0 AODV 102 [0 ffffffff 3 800] [energy 1.681629 ei 0.000 es 0.000 et 0.000 er 0.000] ------- [3:255 -1:255 1 0] [0x1 1 [3 4] 4.000000] (HELLO)
s 0.970586691 _4_ RTR  --- 0 AODV 44 [0 0 0 0] [energy 1.643690 ei 0.038 es 0.000 et 0.000 er 0.000] ------- [4:255 -1:255 1 0] [0x1 1 [4 6] 4.000000] (HELLO)
s 0.971101691 _4_ MAC  --- 0 AODV 102 [0 ffffffff 4 800] [energy 1.643690 ei 0.038 es 0.000 et 0.000 er 0.000] ------- [4:255 -1:255 1 0] [0x1 1 [4 6] 4.000000] (HELLO)
N -t 0.971102 -n 2 -e 1.632781
N -t 0.971103 -n 0 -e 1.632779
r 0.971918003 _2_ MAC  --- 0 AODV 44 [0 ffffffff 4 800] [energy 1.632781 ei 0.048 es 0.000 et 0.001 er 0.000] ------- [4:255 -1:255 1 0] [0x1 1 [4 6] 4.000000] (HELLO)
r 0.971918848 _0_ MAC  --- 0 AODV 44 [0 ffffffff 4 800] [energy 1.632779 ei 0.048 es 0.000 et 0.001 er 0.000] ------- [4:255 -1:255 1 0] [0x1 1 [4 6] 4.000000] (HELLO)
r 0.971943003 _2_ RTR  --- 0 AODV 44 [0 ffffffff 4 800] [energy 1.632781 ei 0.048 es 0.000 et 0.001 er 0.000] ------- [4:255 -1:255 1 0] [0x1 1 [4 6] 4.000000] (HELLO)
r 0.971943848 _0_ RTR  --- 0 AODV 44 [0 ffffffff 4 800] [energy 1.632779 ei 0.048 es 0.000 et 0.001 er 0.000] ------- [4:255 -1:255 1 0] [0x1 1 [4 6] 4.000000] (HELLO)
s 1.027940358 _1_ RTR  --- 0 AODV 44 [0 0 0 0] [energy 1.681717 ei 0.000 es 0.000 et 0.000 er 0.000] ------- [1:255 -1:255 1 0] [0x1 1 [1 2] 4.000000] (HELLO)
s 1.028415358 _1_ MAC  --- 0 AODV 102 [0 ffffffff 1 800] [energy 1.681717 ei 0.000 es 0.000 et 0.000 er 0.000] ------- [1:255 -1:255 1 0] [0x1 1 [1 2] 4.000000] (HELLO)
s 1.557073913 _0_ RTR  --- 0 AODV 44 [0 0 0 0] [energy 1.632779 ei 0.048 es 0.000 et 0.001 er 0.000] ------- [0:255 -1:255 1 0] [0x1 1 [0 6] 4.000000] (HELLO)
s 1.557188913 _0_ MAC  --- 0 AODV 102 [0 ffffffff 0 800] [energy 1.632779 ei 0.048 es 0.000 et 0.001 er 0.000] ------- [0:255 -1:255 1 0] [0x1 1 [0 6] 4.000000] (HELLO)
N -t 1.557190 -n 2 -e 1.603435
N -t 1.557190 -n 4 -e 1.603435
r 1.558005734 _2_ MAC  --- 0 AODV 44 [0 ffffffff 0 800] [energy 1.603435 ei 0.078 es 0.000 et 0.001 er 0.000] ------- [0:255 -1:255 1 0] [0x1 1 [0 6] 4.000000] (HELLO)
r 1.558006035 _4_ MAC  --- 0 AODV 44 [0 ffffffff 0 800] [energy 1.603435 ei 0.078 es 0.000 et 0.001 er 0.000] ------- [0:255 -1:255 1 0] [0x1 1 [0 6] 4.000000] (HELLO)
r 1.558030734 _2_ RTR  --- 0 AODV 44 [0 ffffffff 0 800] [energy 1.603435 ei 0.078 es 0.000 et 0.001 er 0.000] ------- [0:255 -1:255 1 0] [0x1 1 [0 6] 4.000000] (HELLO)
r 1.558031035 _4_ RTR  --- 0 AODV 44 [0 ffffffff 0 800] [energy 1.603435 ei 0.078 es 0.000 et 0.001 er 0.000] ------- [0:255 -1:255 1 0] [0x1 1 [0 6] 4.000000] (HELLO)
s 1.594504957 _2_ RTR  --- 0 AODV 44 [0 0 0 0] [energy 1.603435 ei 0.078 es 0.000 et 0.001 er 0.000] ------- [2:255 -1:255 1 0] [0x1 1 [2 6] 4.000000] (HELLO)
s 1.594719957 _2_ MAC  --- 0 AODV 102 [0 ffffffff 2 800] [energy 1.603435 ei 0.078 es 0.000 et 0.001 er 0.000] ------- [2:255 -1:255 1 0] [0x1 1 [2 6] 4.000000] (HELLO)
N -t 1.594720 -n 4 -e 1.601518
N -t 1.594721 -n 0 -e 1.601327
N -t 1.594721 -n 1 -e 1.601722
r 1.595536293 _4_ MAC  --- 0 AODV 44 [0 ffffffff 2 800] [energy 1.601518 ei 0.079 es 0.000 et 0.001 er 0.000] ------- [2:255 -1:255 1 0] [0x1 1 [2 6] 4.000000] (HELLO)
r 1.595536776 _0_ MAC  --- 0 AODV 44 [0 ffffffff 2 800] [energy 1.601327 ei 0.079 es 0.000 et 0.001 er 0.000] ------- [2:255 -1:255 1 0] [0x1 1 [2 6] 4.000000] (HELLO)
r 1.595537265 _1_ MAC  --- 0 AODV 44 [0 ffffffff 2 800] [energy 1.601722 ei 0.080 es 0.000 et 0.001 er 0.000] ------- [2:255 -1:255 1 0] [0x1 1 [2 6] 4.000000] (HELLO)
r 1.595561293 _4_ RTR  --- 0 AODV 44 [0 ffffffff 2 800] [energy 1.601518 ei 0.079 es 0.000 et 0.001 er 0.000] ------- [2:255 -1:255 1 0] [0x1 1 [2 6] 4.000000] (HELLO)
r 1.595561776 _0_ RTR  --- 0 AODV 44 [0 ffffffff 2 800] [energy 1.601327 ei 0.079 es 0.000 et 0.001 er 0.000] ------- [2:255 -1:255 1 0] [0x1 1 [2 6] 4.000000] (HELLO)
r 1.595562265 _1_ RTR  --- 0 AODV 44 [0 ffffffff 2 800] [energy 1.601722 ei 0.080 es 0.000 et 0.001 er 0.000] ------- [2:255 -1:255 1 0] [0x1 1 [2 6] 4.000000] (HELLO)
s 1.718431848 _3_ RTR  --- 0 AODV 44 [0 0 0 0] [energy 1.641740 ei 0.040 es 0.000 et 0.001 er 0.000] ------- [3:255 -1:255 1 0] [0x1 1 [3 4] 4.000000] (HELLO)
s 1.718706848 _3_ MAC  --- 0 AODV 102 [0 ffffffff 3 800] [energy 1.641740 ei 0.040 es 0.000 et 0.001 er 0.000] ------- [3:255 -1:255 1 0] [0x1 1 [3 4] 4.000000] (HELLO)
s 1.979911088 _4_ RTR  --- 0 AODV 44 [0 0 0 0] [energy 1.601518 ei 0.079 es 0.000 et 0.001 er 0.000] ------- [4:255 -1:255 1 0] [0x1 1 [4 6] 4.000000] (HELLO)
s 1.980206088 _4_ MAC  --- 0 AODV 102 [0 ffffffff 4 800] [energy 1.601518 ei 0.079 es 0.000 et 0.001 er 0.000] ------- [4:255 -1:255 1 0] [0x1 1 [4 6] 4.000000] (HELLO)
N -t 1.980206 -n 2 -e 1.582014
N -t 1.980207 -n 0 -e 1.582012
r 1.981022440 _2_ MAC  --- 0 AODV 44 [0 ffffffff 4 800] [energy 1.582014 ei 0.099 es 0.000 et 0.001 er 0.000] ------- [4:255 -1:255 1 0] [0x1 1 [4 6] 4.000000] (HELLO)
r 1.981023185 _0_ MAC  --- 0 AODV 44 [0 ffffffff 4 800] [energy 1.582012 ei 0.099 es 0.000 et 0.001 er 0.000] ------- [4:255 -1:255 1 0] [0x1 1 [4 6] 4.000000] (HELLO)
r 1.981047440 _2_ RTR  --- 0 AODV 44 [0 ffffffff 4 800] [energy 1.582014 ei 0.099 es 0.000 et 0.001 er 0.000] ------- [4:255 -1:255 1 0] [0x1 1 [4 6] 4.000000] (HELLO)
r 1.981048185 _0_ RTR  --- 0 AODV 44 [0 ffffffff 4 800] [energy 1.582012 ei 0.099 es 0.000 et 0.001 er 0.000] ------- [4:255 -1:255 1 0] [0x1 1 [4 6] 4.000000] (HELLO)
s 2.208973998 _1_ RTR  --- 0 AODV 44 [0 0 0 0] [energy 1.601722 ei 0.080 es 0.000 et 0.001 er 0.000] ------- [1:255 -1:255 1 0] [0x1 1 [1 4] 4.000000] (HELLO)
s 2.209108998 _1_ MAC  --- 0 AODV 102 [0 ffffffff 1 800] [energy 1.601722 ei 0.080 es 0.000 et 0.001 er 0.000] ------- [1:255 -1:255 1 0] [0x1 1 [1 4] 4.000000] (HELLO)
N -t 2.209110 -n 2 -e 1.570528
r 2.209926239 _2_ MAC  --- 0 AODV 44 [0 ffffffff 1 800] [energy 1.570528 ei 0.110 es 0.000 et 0.001 er 0.001] ------- [1:255 -1:255 1 0] [0x1 1 [1 4] 4.000000] (HELLO)
r 2.209951239 _2_ RTR  --- 0 AODV 44 [0 ffffffff 1 800] [energy 1.570528 ei 0.110 es 0.000 et 0.001 er 0.001] ------- [1:255 -1:255 1 0] [0x1 1 [1 4] 4.000000] (HELLO)
s 2.427686727 _0_ RTR  --- 0 AODV 44 [0 0 0 0] [energy 1.582012 ei 0.099 es 0.000 et 0.001 er 0.000] ------- [0:255 -1:255 1 0] [0x1 1 [0 6] 4.000000] (HELLO)
s 2.428261727 _0_ MAC  --- 0 AODV 102 [0 ffffffff 0 800] [energy 1.582012 ei 0.099 es 0.000 et 0.001 er 0.000] ------- [0:255 -1:255 1 0] [0x1 1 [0 6] 4.000000] (HELLO)
N -t 2.428262 -n 2 -e 1.559529
N -t 2.428263 -n 4 -e 1.559570
r 2.429078489 _2_ MAC  --- 0 AODV 44 [0 ffffffff 0 800] [energy 1.559529 ei 0.121 es 0.000 et 0.001 er 0.001] ------- [0:255 -1:255 1 0] [0x1 1 [0 6] 4.000000] (HELLO)
r 2.429078797 _4_ MAC  --- 0 AODV 44 [0 ffffffff 0 800] [energy 1.559570 ei 0.121 es 0.000 et 0.001 er 0.001] ------- [0:255 -1:255 1 0] [0x1 1 [0 6] 4.000000] (HELLO)
r 2.429103489 _2_ RTR  --- 0 AODV 44 [0 ffffffff 0 800] [energy 1.559529 ei 0.121 es 0.000 et 0.001 er 0.001] ------- [0:255 -1:255 1 0] [0x1 1 [0 6] 4.000000] (HELLO)
r 2.429103797 _4_ RTR  --- 0 AODV 44 [0 ffffffff 0 800] [energy 1.559570 ei 0.121 es 0.000 et 0.001 er 0.001] ------- [0:255 -1:255 1 0] [0x1 1 [0 6] 4.000000] (HELLO)
s 2.523031084 _3_ RTR  --- 0 AODV 44 [0 0 0 0] [energy 1.595293 ei 0.086 es 0.000 et 0.001 er 0.000] ------- [3:255 -1:255 1 0] [0x1 1 [3 4] 4.000000] (HELLO)
s 2.523386084 _3_ MAC  --- 0 AODV 102 [0 ffffffff 3 800] [energy 1.595293 ei 0.086 es 0.000 et 0.001 er 0.000] ------- [3:255 -1:255 1 0] [0x1 1 [3 4] 4.000000] (HELLO)
s 2.556838879 _3_ AGT  --- 0 cbr 512 [0 0 0 0] [energy 1.554829 ei 0.126 es 0.000 et 0.001 er 0.000] ------- [3:0 4:0 32 0] [0] 0 0
r 2.556838879 _3_ RTR  --- 0 cbr 512 [0 0 0 0] [energy 1.554829 ei 0.126 es 0.000 et 0.001 er 0.000] ------- [3:0 4:0 32 0] [0] 0 0
s 2.556838879 _3_ RTR  --- 0 AODV 48 [0 0 0 0] [energy 1.554829 ei 0.126 es 0.000 et 0.001 er 0.000] ------- [3:255 -1:255 30 0] [0x2 1 -1 [4 0] [3 6]] (REQUEST)
s 2.557133879 _3_ MAC  --- 0 AODV 106 [0 ffffffff 3 800] [energy 1.554829 ei 0.126 es 0.000 et 0.001 er 0.000] ------- [3:255 -1:255 30 0] [0x2 1 -1 [4 0] [3 6]] (REQUEST)
s 2.725620904 _2_ RTR  --- 0 AODV 44 [0 0 0 0] [energy 1.559529 ei 0.121 es 0.000 et 0.001 er 0.001] ------- [2:255 -1:255 1 0] [0x1 1 [2 8] 4.000000] (HELLO)
s 2.725915904 _2_ MAC  --- 0 AODV 102 [0 ffffffff 2 800] [energy 1.559529 ei 0.121 es 0.000 et 0.001 er 0.001] ------- [2:255 -1:255 1 0] [0x1 1 [2 8] 4.000000] (HELLO)
N -t 2.725916 -n 4 -e 1.544647
N -t 2.725917 -n 0 -e 1.544455
N -t 2.725917 -n 1 -e 1.544891
r 2.726732287 _4_ MAC  --- 0 AODV 44 [0 ffffffff 2 800] [energy 1.544647 ei 0.136 es 0.000 et 0.001 er 0.001] ------- [2:255 -1:255 1 0] [0x1 1 [2 8] 4.000000] (HELLO)
r 2.726732647 _0_ MAC  --- 0 AODV 44 [0 ffffffff 2 800] [energy 1.544455 ei 0.136 es 0.000 et 0.001 er 0.001] ------- [2:255 -1:255 1 0] [0x1 1 [2 8] 4.000000] (HELLO)
r 2.726733088 _1_ MAC  --- 0 AODV 44 [0 ffffffff 2 800] [energy 1.544891 ei 0.136 es 0.000 et 0.001 er 0.000] ------- [2:255 -1:255 1 0] [0x1 1 [2 8] 4.000000] (HELLO)
r 2.726757287 _4_ RTR  --- 0 AODV 44 [0 ffffffff 2 800] [energy 1.544647 ei 0.136 es 0.000 et 0.001 er 0.001] ------- [2:255 -1:255 1 0] [0x1 1 [2 8] 4.000000] (HELLO)
r 2.726757647 _0_ RTR  --- 0 AODV 44 [0 ffffffff 2 800] [energy 1.544455 ei 0.136 es 0.000 et 0.001 er 0.001] ------- [2:255 -1:255 1 0] [0x1 1 [2 8] 4.000000] (HELLO)
r 2.726758088 _1_ RTR  --- 0 AODV 44 [0 ffffffff 2 800] [energy 1.544891 ei 0.136 es 0.000 et 0.001 er 0.000] ------- [2:255 -1:255 1 0] [0x1 1 [2 8] 4.000000] (HELLO)
s 2.765803272 _3_ AGT  --- 1 cbr 512 [0 0 0 0] [energy 1.552901 ei 0.128 es 0.000 et 0.001 er 0.000] ------- [3:0 4:0 32 0] [1] 0 0
r 2.765803272 _3_ RTR  --- 1 cbr 512 [0 0 0 0] [energy 1.552901 ei 0.128 es 0.000 et 0.001 er 0.000] ------- [3:0 4:0 32 0] [1] 0 0
s 2.931266672 _3_ AGT  --- 2 cbr 512 [0 0 0 0] [energy 1.552901 ei 0.128 es 0.000 et 0.001 er 0.000] ------- [3:0 4:0 32 0] [2] 0 0
r 2.931266672 _3_ RTR  --- 2 cbr 512 [0 0 0 0] [energy 1.552901 ei 0.128 es 0.000 et 0.001 er 0.000] ------- [3:0 4:0 32 0] [2] 0 0
s 3.014989656 _1_ RTR  --- 0 AODV 44 [0 0 0 0] [energy 1.544891 ei 0.136 es 0.000 et 0.001 er 0.000] ------- [1:255 -1:255 1 0] [0x1 1 [1 4] 4.000000] (HELLO)
s 3.015364656 _1_ MAC  --- 0 AODV 102 [0 ffffffff 1 800] [energy 1.544891 ei 0.136 es 0.000 et 0.001 er 0.000] ------- [1:255 -1:255 1 0] [0x1 1 [1 4] 4.000000] (HELLO)
N -t 3.015366 -n 2 -e 1.529903
r 3.016181809 _2_ MAC  --- 0 AODV 44 [0 ffffffff 1 800] [energy 1.529903 ei 0.150 es 0.000 et 0.001 er 0.001] ------- [1:255 -1:255 1 0] [0x1 1 [1 4] 4.000000] (HELLO)
r 3.016206809 _2_ RTR  --- 0 AODV 44 [0 ffffffff 1 800] [energy 1.529903 ei 0.150 es 0.000 et 0.001 er 0.001] ------- [1:255 -1:255 1 0] [0x1 1 [1 4] 4.000000] (HELLO)
s 3.068509523 _3_ AGT  --- 3 cbr 512 [0 0 0 0] [energy 1.552901 ei 0.128 es 0.000 et 0.001 er 0.000] ------- [3:0 4:0 32 0] [3] 0 0
r 3.068509523 _3_ RTR  --- 3 cbr 512 [0 0 0 0] [energy 1.552901 ei 0.128 es 0.000 et 0.001 er 0.000] ------- [3:0 4:0 32 0] [3] 0 0
s 3.173632861 _4_ RTR  --- 0 AODV 44 [0 0 0 0] [energy 1.544647 ei 0.136 es 0.000 et 0.001 er 0.001] ------- [4:255 -1:255 1 0] [0x1 1 [4 6] 4.000000] (HELLO)
s 3.173947861 _4_ MAC  --- 0 AODV 102 [0 ffffffff 4 800] [energy 1.544647 ei 0.136 es 0.000 et 0.001 er 0.001] ------- [4:255 -1:255 1 0] [0x1 1 [4 6] 4.000000] (HELLO)
N -t 3.173948 -n 2 -e 1.521933
N -t 3.173949 -n 0 -e 1.522013
r 3.174764266 _2_ MAC  --- 0 AODV 44 [0 ffffffff 4 800] [energy 1.521933 ei 0.158 es 0.000 et 0.001 er 0.001] ------- [4:255 -1:255 1 0] [0x1 1 [4 6] 4.000000] (HELLO)
r 3.174764887 _0_ MAC  --- 0 AODV 44 [0 ffffffff 4 800] [energy 1.522013 ei 0.158 es 0.000 et 0.001 er 0.001] ------- [4:255 -1:255 1 0] [0x1 1 [4 6] 4.000000] (HELLO)
r 3.174789266 _2_ RTR  --- 0 AODV 44 [0 ffffffff 4 800] [energy 1.521933 ei 0.158 es 0.000 et 0.001 er 0.001] ------- [4:255 -1:255 1 0] [0x1 1 [4 6] 4.000000] (HELLO)
r 3.174789887 _0_ RTR  --- 0 AODV 44 [0 ffffffff 4 800] [energy 1.522013 ei 0.158 es 0.000 et 0.001 er 0.001] ------- [4:255 -1:255 1 0] [0x1 1 [4 6] 4.000000] (HELLO)
s 3.209856328 _3_ AGT  --- 4 cbr 512 [0 0 0 0] [energy 1.552901 ei 0.128 es 0.000 et 0.001 er 0.000] ------- [3:0 4:0 32 0] [4] 0 0
r 3.209856328 _3_ RTR  --- 4 cbr 512 [0 0 0 0] [energy 1.552901 ei 0.128 es 0.000 et 0.001 er 0.000] ------- [3:0 4:0 32 0] [4] 0 0
s 3.328127712 _3_ AGT  --- 5 cbr 512 [0 0 0 0] [energy 1.552901 ei 0.128 es 0.000 et 0.001 er 0.000] ------- [3:0 4:0 32 0] [5] 0 0
r 3.328127712 _3_ RTR  --- 5 cbr 512 [0 0 0 0] [energy 1.552901 ei 0.128 es 0.000 et 0.001 er 0.000] ------- [3:0 4:0 32 0] [5] 0 0
s 3.475200421 _0_ RTR  --- 0 AODV 44 [0 0 0 0] [energy 1.522013 ei 0.158 es 0.000 et 0.001 er 0.001] ------- [0:255 -1:255 1 0] [0x1 1 [0 6] 4.000000] (HELLO)
s 3.475395421 _0_ MAC  --- 0 AODV 102 [0 ffffffff 0 800] [energy 1.522013 ei 0.158 es 0.000 et 0.001 er 0.001] ------- [0:255 -1:255 1 0] [0x1 1 [0 6] 4.000000] (HELLO)
N -t 3.475396 -n 2 -e 1.506820
N -t 3.475396 -n 4 -e 1.506902
r 3.476212120 _2_ MAC  --- 0 AODV 44 [0 ffffffff 0 800] [energy 1.506820 ei 0.173 es 0.000 et 0.001 er 0.001] ------- [0:255 -1:255 1 0] [0x1 1 [0 6] 4.000000] (HELLO)
r 3.476212428 _4_ MAC  --- 0 AODV 44 [0 ffffffff 0 800] [energy 1.506902 ei 0.173 es 0.000 et 0.001 er 0.001] ------- [0:255 -1:255 1 0] [0x1 1 [0 6] 4.000000] (HELLO)
r 3.476237120 _2_ RTR  --- 0 AODV 44 [0 ffffffff 0 800] [energy 1.506820 ei 0.173 es 0.000 et 0.001 er 0.001] ------- [0:255 -1:255 1 0] [0x1 1 [0 6] 4.000000] (HELLO)
r 3.476237428 _4_ RTR  --- 0 AODV 44 [0 ffffffff 0 800] [energy 1.506902 ei 0.173 es 0.000 et 0.001 er 0.001] ------- [0:255 -1:255 1 0] [0x1 1 [0 6] 4.000000] (HELLO)
s 3.526472052 _3_ AGT  --- 6 cbr 512 [0 0 0 0] [energy 1.552901 ei 0.128 es 0.000 et 0.001 er 0.000] ------- [3:0 4:0 32 0] [6] 0 0
r 3.526472052 _3_ RTR  --- 6 cbr 512 [0 0 0 0] [energy 1.552901 ei 0.128 es 0.000 et 0.001 er 0.000] ------- [3:0 4:0 32 0] [6] 0 0
s 3.607343031 _3_ RTR  --- 0 AODV 44 [0 0 0 0] [energy 1.552901 ei 0.128 es 0.000 et 0.001 er 0.000] ------- [3:255 -1:255 1 0] [0x1 1 [3 6] 4.000000] (HELLO)
s 3.607678031 _3_ MAC  --- 0 AODV 102 [0 ffffffff 3 800] [energy 1.552901 ei 0.128 es 0.000 et 0.001 er 0.000] ------- [3:255 -1:255 1 0] [0x1 1 [3 6] 4.000000] (HELLO)
s 3.753040740 _2_ RTR  --- 0 AODV 44 [0 0 0 0] [energy 1.506820 ei 0.173 es 0.000 et 0.001 er 0.001] ------- [2:255 -1:255 1 0] [0x1 1 [2 8] 4.000000] (HELLO)
s 3.753455740 _2_ MAC  --- 0 AODV 102 [0 ffffffff 2 800] [energy 1.506820 ei 0.173 es 0.000 et 0.001 er 0.001] ------- [2:255 -1:255 1 0] [0x1 1 [2 8] 4.000000] (HELLO)
N -t 3.753456 -n 4 -e 1.492958
N -t 3.753456 -n 0 -e 1.492767
N -t 3.753457 -n 1 -e 1.493244
r 3.754272172 _4_ MAC  --- 0 AODV 44 [0 ffffffff 2 800] [energy 1.492958 ei 0.187 es 0.000 et 0.001 er 0.001] ------- [2:255 -1:255 1 0] [0x1 1 [2 8] 4.000000] (HELLO)
r 3.754272424 _0_ MAC  --- 0 AODV 44 [0 ffffffff 2 800] [energy 1.492767 ei 0.187 es 0.000 et 0.001 er 0.001] ------- [2:255 -1:255 1 0] [0x1 1 [2 8] 4.000000] (HELLO)
r 3.754272812 _1_ MAC  --- 0 AODV 44 [0 ffffffff 2 800] [energy 1.493244 ei 0.187 es 0.000 et 0.001 er 0.000] ------- [2:255 -1:255 1 0] [0x1 1 [2 8] 4.000000] (HELLO)
r 3.754297172 _4_ RTR  --- 0 AODV 44 [0 ffffffff 2 800] [energy 1.492958 ei 0.187 es 0.000 et 0.001 er 0.001] ------- [2:255 -1:255 1 0] [0x1 1 [2 8] 4.000000] (HELLO)
r 3.754297424 _0_ RTR  --- 0 AODV 44 [0 ffffffff 2 800] [energy 1.492767 ei 0.187 es 0.000 et 0.001 er 0.001] ------- [2:255 -1:255 1 0] [0x1 1 [2 8] 4.000000] (HELLO)
r 3.754297812 _1_ RTR  --- 0 AODV 44 [0 ffffffff 2 800] [energy 1.493244 ei 0.187 es 0.000 et 0.001 er 0.000] ------- [2:255 -1:255 1 0] [0x1 1 [2 8] 4.000000] (HELLO)
s 3.773490277 _3_ AGT  --- 7 cbr 512 [0 0 0 0] [energy 1.500145 ei 0.180 es 0.000 et 0.002 er 0.000] ------- [3:0 4:0 32 0] [7] 0 0
r 3.773490277 _3_ RTR  --- 7 cbr 512 [0 0 0 0] [energy 1.500145 ei 0.180 es 0.000 et 0.002 er 0.000] ------- [3:0 4:0 32 0] [7] 0 0
s 3.990712773 _3_ AGT  --- 8 cbr 512 [0 0 0 0] [energy 1.500145 ei 0.180 es 0.000 et 0.002 er 0.000] ------- [3:0 4:0 32 0] [8] 0 0
r 3.990712773 _3_ RTR  --- 8 cbr 512 [0 0 0 0] [energy 1.500145 ei 0.180 es 0.000 et 0.002 er 0.000] ------- [3:0 4:0 32 0] [8] 0 0
s 4.157483208 _1_ RTR  --- 0 AODV 44 [0 0 0 0] [energy 1.493244 ei 0.187 es 0.000 et 0.001 er 0.000] ------- [1:255 -1:255 1 0] [0x1 1 [1 4] 4.000000] (HELLO)
s 4.157678208 _1_ MAC  --- 0 AODV 102 [0 ffffffff 1 800] [energy 1.493244 ei 0.187 es 0.000 et 0.001 er 0.000] ------- [1:255 -1:255 1 0] [0x1 1 [1 4] 4.000000] (HELLO)
N -t 4.157679 -n 2 -e 1.472435
N -t 4.157680 -n 0 -e 1.472515
r 4.158495236 _2_ MAC  --- 0 AODV 44 [0 ffffffff 1 800] [energy 1.472435 ei 0.207 es 0.000 et 0.001 er 0.001] ------- [1:255 -1:255 1 0] [0x1 1 [1 4] 4.000000] (HELLO)
r 4.158495527 _0_ MAC  --- 0 AODV 44 [0 ffffffff 1 800] [energy 1.472515 ei 0.207 es 0.000 et 0.001 er 0.001] ------- [1:255 -1:255 1 0] [0x1 1 [1 4] 4.000000] (HELLO)
r 4.158520236 _2_ RTR  --- 0 AODV 44 [0 ffffffff 1 800] [energy 1.472435 ei 0.207 es 0.000 et 0.001 er 0.001] ------- [1:255 -1:255 1 0] [0x1 1 [1 4] 4.000000] (HELLO)
r 4.158520527 _0_ RTR  --- 0 AODV 44 [0 ffffffff 1 800] [energy 1.472515 ei 0.207 es 0.000 et 0.001 er 0.001] ------- [1:255 -1:255 1 0] [0x1 1 [1 4] 4.000000] (HELLO)
s 4.237880879 _3_ AGT  --- 9 cbr 512 [0 0 0 0] [energy 1.500145 ei 0.180 es 0.000 et 0.002 er 0.000] ------- [3:0 4:0 32 0] [9] 0 0
r 4.237880879 _3_ RTR  --- 9 cbr 512 [0 0 0 0] [energy 1.500145 ei 0.180 es 0.000 et 0.002 er 0.000] ------- [3:0 4:0 32 0] [9] 0 0
s 4.250267123 _0_ RTR  --- 0 AODV 44 [0 0 0 0] [energy 1.472515 ei 0.207 es 0.000 et 0.001 er 0.001] ------- [0:255 -1:255 1 0] [0x1 1 [0 8] 4.000000] (HELLO)
s 4.250642123 _0_ MAC  --- 0 AODV 102 [0 ffffffff 0 800] [energy 1.472515 ei 0.207 es 0.000 et 0.001 er 0.001] ------- [0:255 -1:255 1 0] [0x1 1 [0 8] 4.000000] (HELLO)
N -t 4.250643 -n 2 -e 1.467746
N -t 4.250643 -n 4 -e 1.468058
N -t 4.250643 -n 1 -e 1.468113
r 4.251458782 _2_ MAC  --- 0 AODV 44 [0 ffffffff 0 800] [energy 1.467746 ei 0.212 es 0.000 et 0.001 er 0.001] ------- [0:255 -1:255 1 0] [0x1 1 [0 8] 4.000000] (HELLO)
r 4.251459085 _4_ MAC  --- 0 AODV 44 [0 ffffffff 0 800] [energy 1.468058 ei 0.212 es 0.000 et 0.001 er 0.001] ------- [0:255 -1:255 1 0] [0x1 1 [0 8] 4.000000] (HELLO)
r 4.251459438 _1_ MAC  --- 0 AODV 44 [0 ffffffff 0 800] [energy 1.468113 ei 0.212 es 0.000 et 0.001 er 0.000] ------- [0:255 -1:255 1 0] [0x1 1 [0 8] 4.000000] (HELLO)
r 4.251483782 _2_ RTR  --- 0 AODV 44 [0 ffffffff 0 800] [energy 1.467746 ei 0.212 es 0.000 et 0.001 er 0.001] ------- [0:255 -1:255 1 0] [0x1 1 [0 8] 4.000000] (HELLO)
r 4.251484085 _4_ RTR  --- 0 AODV 44 [0 ffffffff 0 800] [energy 1.468058 ei 0.212 es 0.000 et 0.001 er 0.001] ------- [0:255 -1:255 1 0] [0x1 1 [0 8] 4.000000] (HELLO)
r 4.251484438 _1_ RTR  --- 0 AODV 44 [0 ffffffff 0 800] [energy 1.468113 ei 0.212 es 0.000 et 0.001 er 0.000] ------- [0:255 -1:255 1 0] [0x1 1 [0 8] 4.000000] (HELLO)
s 4.271101492 _4_ RTR  --- 0 AODV 44 [0 0 0 0] [energy 1.468058 ei 0.212 es 0.000 et 0.001 er 0.001] ------- [4:255 -1:255 1 0] [0x1 1 [4 6] 4.000000] (HELLO)
s 4.271516492 _4_ MAC  --- 0 AODV 102 [0 ffffffff 4 800] [energy 1.468058 ei 0.212 es 0.000 et 0.001 er 0.001] ------- [4:255 -1:255 1 0] [0x1 1 [4 6] 4.000000] (HELLO)
N -t 4.271517 -n 2 -e 1.466662
N -t 4.271517 -n 0 -e 1.466552
r 4.272332949 _2_ MAC  --- 0 AODV 44 [0 ffffffff 4 800] [energy 1.466662 ei 0.213 es 0.000 et 0.001 er 0.001] ------- [4:255 -1:255 1 0] [0x1 1 [4 6] 4.000000] (HELLO)
r 4.272333453 _0_ MAC  --- 0 AODV 44 [0 ffffffff 4 800] [energy 1.466552 ei 0.213 es 0.000 et 0.002 er 0.001] ------- [4:255 -1:255 1 0] [0x1 1 [4 6] 4.000000] (HELLO)
r 4.272357949 _2_ RTR  --- 0 AODV 44 [0 ffffffff 4 800] [energy 1.466662 ei 0.213 es 0.000 et 0.001 er 0.001] ------- [4:255 -1:255 1 0] [0x1 1 [4 6] 4.000000] (HELLO)
r 4.272358453 _0_ RTR  --- 0 AODV 44 [0 ffffffff 4 800] [energy 1.466552 ei 0.213 es 0.000 et 0.002 er 0.001] ------- [4:255 -1:255 1 0] [0x1 1 [4 6] 4.000000] (HELLO)
s 4.500000000 _3_ RTR  --- 0 AODV 48 [0 0 0 0] [energy 1.500145 ei 0.180 es 0.000 et 0.002 er 0.000] ------- [3:255 -1:255 30 0] [0x2 1 -1 [4 0] [3 8]] (REQUEST)
s 4.500655000 _3_ MAC  --- 0 AODV 106 [0 ffffffff 3 800] [energy 1.500145 ei 0.180 es 0.000 et 0.002 er 0.000] ------- [3:255 -1:255 30 0] [0x2 1 -1 [4 0] [3 8]] (REQUEST)
s 4.500997348 _3_ AGT  --- 10 cbr 512 [0 0 0 0] [energy 1.455255 ei 0.225 es 0.000 et 0.002 er 0.000] ------- [3:0 4:0 32 0] [10] 0 0
r 4.500997348 _3_ RTR  --- 10 cbr 512 [0 0 0 0] [energy 1.455255 ei 0.225 es 0.000 et 0.002 er 0.000] ------- [3:0 4:0 32 0] [10] 0 0
s 4.567953056 _3_ RTR  --- 0 AODV 44 [0 0 0 0] [energy 1.455255 ei 0.225 es 0.000 et 0.002 er 0.000] ------- [3:255 -1:255 1 0] [0x1 1 [3 8] 4.000000] (HELLO)
s 4.568468056 _3_ MAC  --- 0 AODV 102 [0 ffffffff 3 800] [energy 1.455255 ei 0.225 es 0.000 et 0.002 er 0.000] ------- [3:255 -1:255 1 0] [0x1 1 [3 8] 4.000000] (HELLO)
s 4.617683326 _3_ AGT  --- 11 cbr 512 [0 0 0 0] [energy 1.451636 ei 0.228 es 0.000 et 0.002 er 0.000] ------- [3:0 4:0 32 0] [11] 0 0
r 4.617683326 _3_ RTR  --- 11 cbr 512 [0 0 0 0] [energy 1.451636 ei 0.228 es 0.000 et 0.002 er 0.000] ------- [3:0 4:0 32 0] [11] 0 0
s 4.790732791 _3_ AGT  --- 12 cbr 512 [0 0 0 0] [energy 1.451636 ei 0.228 es 0.000 et 0.002 er 0.000] ------- [3:0 4:0 32 0] [12] 0 0
r 4.790732791 _3_ RTR  --- 12 cbr 512 [0 0 0 0] [energy 1.451636 ei 0.228 es 0.000 et 0.002 er 0.000] ------- [3:0 4:0 32 0] [12] 0 0
s 4.951730585 _3_ AGT  --- 13 cbr 512 [0 0 0 0] [energy 1.451636 ei 0.228 es 0.000 et 0.002 er 0.000] ------- [3:0 4:0 32 0] [13] 0 0
r 4.951730585 _3_ RTR  --- 13 cbr 512 [0 0 0 0] [energy 1.451636 ei 0.228 es 0.000 et 0.002 er 0.000] ------- [3:0 4:0 32 0] [13] 0 0
s 4.954464562 _2_ RTR  --- 0 AODV 44 [0 0 0 0] [energy 1.466662 ei 0.213 es 0.000 et 0.001 er 0.001] ------- [2:255 -1:255 1 0] [0x1 1 [2 8] 4.000000] (HELLO)
s 4.954679562 _2_ MAC  --- 0 AODV 102 [0 ffffffff 2 800] [energy 1.466662 ei 0.213 es 0.000 et 0.001 er 0.001] ------- [2:255 -1:255 1 0] [0x1 1 [2 8] 4.000000] (HELLO)
N -t 4.954680 -n 4 -e 1.432585
N -t 4.954680 -n 0 -e 1.432353
N -t 4.954681 -n 1 -e 1.432871
r 4.955496052 _4_ MAC  --- 0 AODV 44 [0 ffffffff 2 800] [energy 1.432585 ei 0.247 es 0.000 et 0.001 er 0.001] ------- [2:255 -1:255 1 0] [0x1 1 [2 8] 4.000000] (HELLO)
r 4.955496192 _0_ MAC  --- 0 AODV 44 [0 ffffffff 2 800] [energy 1.432353 ei 0.247 es 0.000 et 0.002 er 0.001] ------- [2:255 -1:255 1 0] [0x1 1 [2 8] 4.000000] (HELLO)
r 4.955496503 _1_ MAC  --- 0 AODV 44 [0 ffffffff 2 800] [energy 1.432871 ei 0.247 es 0.000 et 0.001 er 0.000] ------- [2:255 -1:255 1 0] [0x1 1 [2 8] 4.000000] (HELLO)
r 4.955521052 _4_ RTR  --- 0 AODV 44 [0 ffffffff 2 800] [energy 1.432585 ei 0.247 es 0.000 et 0.001 er 0.001] ------- [2:255 -1:255 1 0] [0x1 1 [2 8] 4.000000] (HELLO)
r 4.955521192 _0_ RTR  --- 0 AODV 44 [0 ffffffff 2 800] [energy 1.432353 ei 0.247 es 0.000 et 0.002 er 0.001] ------- [2:255 -1:255 1 0] [0x1 1 [2 8] 4.000000] (HELLO)