n -t * -s 0  -x 336.70628094927099 -y 360.83086499777198 -Z 0 -z 20  -v circle -c green
n -t * -s 1  -x 29.413997455992 -y 14.590619372867 -Z 0 -z 20  -v circle -c green
n -t * -s 2  -x 71.903611406672994 -y 457.19935747270199 -Z 0 -z 20  -v circle -c green
n -t * -s 3  -x 500 -y 0 -Z 0 -z 20  -v circle -c green
n -t * -s 4  -x 0 -y 500 -Z 0 -z 20  -v circle -c green
V -t * -v 1.0a5 -a 0
W -t * -x 530 -y 530
A -t * -n 1 -p 0 -o 0x7fffffff -c 30 -a 1
A -t * -h 1 -m 1073741823 -s 0
n -t 0.000000 -s 0 -x 336.706281 -y 360.830865 -U -15.653766 -V 8.941668 -T 8.334406
n -t 0.000000 -s 1 -x 29.413997 -y 14.590619 -U 1.549797 -V 15.727036 -T 24.474994
n -t 0.000000 -s 2 -x 71.903611 -y 457.199357 -U 0.242124 -V -17.092552 -T 25.154351
+ -t 0.000000000 -s 0 -d -1 -p AODV -e 44 -c 2 -a 0 -i 0 -k RTR 
- -t 0.000000000 -s 0 -d -1 -p AODV -e 44 -c 2 -a 0 -i 0 -k RTR
h -t 0.000000000 -s 0 -d -1 -p AODV -e 44 -c 2 -a 0 -i 0 -k RTR
+ -t 0.000000000 -s 1 -d -1 -p AODV -e 44 -c 2 -a 0 -i 0 -k RTR 
- -t 0.000000000 -s 1 -d -1 -p AODV -e 44 -c 2 -a 0 -i 0 -k RTR
h -t 0.000000000 -s 1 -d -1 -p AODV -e 44 -c 2 -a 0 -i 0 -k RTR
+ -t 0.000000000 -s 2 -d -1 -p AODV -e 44 -c 2 -a 0 -i 0 -k RTR 
- -t 0.000000000 -s 2 -d -1 -p AODV -e 44 -c 2 -a 0 -i 0 -k RTR
h -t 0.000000000 -s 2 -d -1 -p AODV -e 44 -c 2 -a 0 -i 0 -k RTR
+ -t 0.000000000 -s 3 -d -1 -p AODV -e 44 -c 2 -a 0 -i 0 -k RTR 
- -t 0.000000000 -s 3 -d -1 -p AODV -e 44 -c 2 -a 0 -i 0 -k RTR
h -t 0.000000000 -s 3 -d -1 -p AODV -e 44 -c 2 -a 0 -i 0 -k RTR
+ -t 0.000000000 -s 4 -d -1 -p AODV -e 44 -c 2 -a 0 -i 0 -k RTR 
- -t 0.000000000 -s 4 -d -1 -p AODV -e 44 -c 2 -a 0 -i 0 -k RTR
h -t 0.000000000 -s 4 -d -1 -p AODV -e 44 -c 2 -a 0 -i 0 -k RTR
+ -t 0.000075000 -s 0 -d -1 -p AODV -e 102 -c 2 -a 0 -i 0 -k MAC 
- -t 0.000075000 -s 0 -d -1 -p AODV -e 102 -c 2 -a 0 -i 0 -k MAC
h -t 0.000075000 -s 0 -d -1 -p AODV -e 102 -c 2 -a 0 -i 0 -k MAC
+ -t 0.000235000 -s 1 -d -1 -p AODV -e 102 -c 2 -a 0 -i 0 -k MAC 
- -t 0.000235000 -s 1 -d -1 -p AODV -e 102 -c 2 -a 0 -i 0 -k MAC
h -t 0.000235000 -s 1 -d -1 -p AODV -e 102 -c 2 -a 0 -i 0 -k MAC
r -t 0.000891939 -s 2 -d -1 -p AODV -e 44 -c 2 -a 0 -i 0 -k MAC
r -t 0.000892214 -s 4 -d -1 -p AODV -e 44 -c 2 -a 0 -i 0 -k MAC
r -t 0.000892320 -s 3 -d -1 -p AODV -e 44 -c 2 -a 0 -i 0 -k MAC
r -t 0.000916939 -s 2 -d -1 -p AODV -e 44 -c 2 -a 0 -i 0 -k RTR
r -t 0.000917214 -s 4 -d -1 -p AODV -e 44 -c 2 -a 0 -i 0 -k RTR
r -t 0.000917320 -s 3 -d -1 -p AODV -e 44 -c 2 -a 0 -i 0 -k RTR
+ -t 0.001141939 -s 2 -d -1 -p AODV -e 102 -c 2 -a 0 -i 0 -k MAC 
- -t 0.001141939 -s 2 -d -1 -p AODV -e 102 -c 2 -a 0 -i 0 -k MAC
h -t 0.001141939 -s 2 -d -1 -p AODV -e 102 -c 2 -a 0 -i 0 -k MAC
+ -t 0.001182320 -s 3 -d -1 -p AODV -e 102 -c 2 -a 0 -i 0 -k MAC 
- -t 0.001182320 -s 3 -d -1 -p AODV -e 102 -c 2 -a 0 -i 0 -k MAC
h -t 0.001182320 -s 3 -d -1 -p AODV -e 102 -c 2 -a 0 -i 0 -k MAC
d -t 0.001183640 -s 0 -d -1 -p AODV -e 102 -c 2 -a 0 -i 0 -k MAC
r -t 0.001958218 -s 4 -d -1 -p AODV -e 44 -c 2 -a 0 -i 0 -k MAC
r -t 0.001983218 -s 4 -d -1 -p AODV -e 44 -c 2 -a 0 -i 0 -k RTR
d -t 0.001999640 -s 0 -d -1 -p AODV -e 102 -c 2 -a 0 -i 0 -k MAC
+ -t 0.002168218 -s 4 -d -1 -p AODV -e 102 -c 2 -a 0 -i 0 -k MAC 
- -t 0.002168218 -s 4 -d -1 -p AODV -e 102 -c 2 -a 0 -i 0 -k MAC
h -t 0.002168218 -s 4 -d -1 -p AODV -e 102 -c 2 -a 0 -i 0 -k MAC
r -t 0.002984497 -s 2 -d -1 -p AODV -e 44 -c 2 -a 0 -i 0 -k MAC
r -t 0.002985433 -s 0 -d -1 -p AODV -e 44 -c 2 -a 0 -i 0 -k MAC
r -t 0.003009497 -s 2 -d -1 -p AODV -e 44 -c 2 -a 0 -i 0 -k RTR
r -t 0.003010433 -s 0 -d -1 -p AODV -e 44 -c 2 -a 0 -i 0 -k RTR
+ -t 0.750169789 -s 0 -d -1 -p AODV -e 44 -c 2 -a 0 -i 0 -k RTR 
- -t 0.750169789 -s 0 -d -1 -p AODV -e 44 -c 2 -a 0 -i 0 -k RTR
h -t 0.750169789 -s 0 -d -1 -p AODV -e 44 -c 2 -a 0 -i 0 -k RTR
+ -t 0.750484789 -s 0 -d -1 -p AODV -e 102 -c 2 -a 0 -i 0 -k MAC 
- -t 0.750484789 -s 0 -d -1 -p AODV -e 102 -c 2 -a 0 -i 0 -k MAC
h -t 0.750484789 -s 0 -d -1 -p AODV -e 102 -c 2 -a 0 -i 0 -k MAC
r -t 0.751301670 -s 2 -d -1 -p AODV -e 44 -c 2 -a 0 -i 0 -k MAC
r -t 0.751301958 -s 4 -d -1 -p AODV -e 44 -c 2 -a 0 -i 0 -k MAC
r -t 0.751326670 -s 2 -d -1 -p AODV -e 44 -c 2 -a 0 -i 0 -k RTR
r -t 0.751326958 -s 4 -d -1 -p AODV -e 44 -c 2 -a 0 -i 0 -k RTR
+ -t 0.757102330 -s 2 -d -1 -p AODV -e 44 -c 2 -a 0 -i 0 -k RTR 
- -t 0.757102330 -s 2 -d -1 -p AODV -e 44 -c 2 -a 0 -i 0 -k RTR
h -t 0.757102330 -s 2 -d -1 -p AODV -e 44 -c 2 -a 0 -i 0 -k RTR
+ -t 0.757517330 -s 2 -d -1 -p AODV -e 102 -c 2 -a 0 -i 0 -k MAC 
- -t 0.757517330 -s 2 -d -1 -p AODV -e 102 -c 2 -a 0 -i 0 -k MAC
h -t 0.757517330 -s 2 -d -1 -p AODV -e 102 -c 2 -a 0 -i 0 -k MAC
r -t 0.758333634 -s 4 -d -1 -p AODV -e 44 -c 2 -a 0 -i 0 -k MAC
r -t 0.758334211 -s 0 -d -1 -p AODV -e 44 -c 2 -a 0 -i 0 -k MAC
r -t 0.758358634 -s 4 -d -1 -p AODV -e 44 -c 2 -a 0 -i 0 -k RTR
r -t 0.758359211 -s 0 -d -1 -p AODV -e 44 -c 2 -a 0 -i 0 -k RTR
+ -t 0.794061336 -s 3 -d -1 -p AODV -e 44 -c 2 -a 0 -i 0 -k RTR 
- -t 0.794061336 -s 3 -d -1 -p AODV -e 44 -c 2 -a 0 -i 0 -k RTR
h -t 0.794061336 -s 3 -d -1 -p AODV -e 44 -c 2 -a 0 -i 0 -k RTR
+ -t 0.794356336 -s 3 -d -1 -p AODV -e 102 -c 2 -a 0 -i 0 -k MAC 
- -t 0.794356336 -s 3 -d -1 -p AODV -e 102 -c 2 -a 0 -i 0 -k MAC
h -t 0.794356336 -s 3 -d -1 -p AODV -e 102 -c 2 -a 0 -i 0 -k MAC
+ -t 0.970586691 -s 4 -d -1 -p AODV -e 44 -c 2 -a 0 -i 0 -k RTR 
- -t 0.970586691 -s 4 -d -1 -p AODV -e 44 -c 2 -a 0 -i 0 -k RTR
h -t 0.970586691 -s 4 -d -1 -p AODV -e 44 -c 2 -a 0 -i 0 -k RTR
+ -t 0.971101691 -s 4 -d -1 -p AODV -e 102 -c 2 -a 0 -i 0 -k MAC 
- -t 0.971101691 -s 4 -d -1 -p AODV -e 102 -c 2 -a 0 -i 0 -k MAC
h -t 0.971101691 -s 4 -d -1 -p AODV -e 102 -c 2 -a 0 -i 0 -k MAC
r -t 0.971918003 -s 2 -d -1 -p AODV -e 44 -c 2 -a 0 -i 0 -k MAC
r -t 0.971918848 -s 0 -d -1 -p AODV -e 44 -c 2 -a 0 -i 0 -k MAC
r -t 0.971943003 -s 2 -d -1 -p AODV -e 44 -c 2 -a 0 -i 0 -k RTR
r -t 0.971943848 -s 0 -d -1 -p AODV -e 44 -c 2 -a 0 -i 0 -k RTR
+ -t 1.027940358 -s 1 -d -1 -p AODV -e 44 -c 2 -a 0 -i 0 -k RTR 
- -t 1.027940358 -s 1 -d -1 -p AODV -e 44 -c 2 -a 0 -i 0 -k RTR
h -t 1.027940358 -s 1 -d -1 -p AODV -e 44 -c 2 -a 0 -i 0 -k RTR
+ -t 1.028415358 -s 1 -d -1 -p AODV -e 102 -c 2 -a 0 -i 0 -k MAC 
- -t 1.028415358 -s 1 -d -1 -p AODV -e 102 -c 2 -a 0 -i 0 -k MAC
h -t 1.028415358 -s 1 -d -1 -p AODV -e 102 -c 2 -a 0 -i 0 -k MAC
+ -t 1.557073913 -s 0 -d -1 -p AODV -e 44 -c 2 -a 0 -i 0 -k RTR 
- -t 1.557073913 -s 0 -d -1 -p AODV -e 44 -c 2 -a 0 -i 0 -k RTR
h -t 1.557073913 -s 0 -d -1 -p AODV -e 44 -c 2 -a 0 -i 0 -k RTR
+ -t 1.557188913 -s 0 -d -1 -p AODV -e 102 -c 2 -a 0 -i 0 -k MAC 
- -t 1.557188913 -s 0 -d -1 -p AODV -e 102 -c 2 -a 0 -i 0 -k MAC
h -t 1.557188913 -s 0 -d -1 -p AODV -e 102 -c 2 -a 0 -i 0 -k MAC
r -t 1.558005734 -s 2 -d -1 -p AODV -e 44 -c 2 -a 0 -i 0 -k MAC
r -t 1.558006035 -s 4 -d -1 -p AODV -e 44 -c 2 -a 0 -i 0 -k MAC
r -t 1.558030734 -s 2 -d -1 -p AODV -e 44 -c 2 -a 0 -i 0 -k RTR
r -t 1.558031035 -s 4 -d -1 -p AODV -e 44 -c 2 -a 0 -i 0 -k RTR
+ -t 1.594504957 -s 2 -d -1 -p AODV -e 44 -c 2 -a 0 -i 0 -k RTR 
- -t 1.594504957 -s 2 -d -1 -p AODV -e 44 -c 2 -a 0 -i 0 -k RTR
h -t 1.594504957 -s 2 -d -1 -p AODV -e 44 -c 2 -a 0 -i 0 -k RTR
+ -t 1.594719957 -s 2 -d -1 -p AODV -e 102 -c 2 -a 0 -i 0 -k MAC 
- -t 1.594719957 -s 2 -d -1 -p AODV -e 102 -c 2 -a 0 -i 0 -k MAC
h -t 1.594719957 -s 2 -d -1 -p AODV -e 102 -c 2 -a 0 -i 0 -k MAC
r -t 1.595536293 -s 4 -d -1 -p AODV -e 44 -c 2 -a 0 -i 0 -k MAC
r -t 1.595536776 -s 0 -d -1 -p AODV -e 44 -c 2 -a 0 -i 0 -k MAC
r -t 1.595537265 -s 1 -d -1 -p AODV -e 44 -c 2 -a 0 -i 0 -k MAC
r -t 1.595561293 -s 4 -d -1 -p AODV -e 44 -c 2 -a 0 -i 0 -k RTR
r -t 1.595561776 -s 0 -d -1 -p AODV -e 44 -c 2 -a 0 -i 0 -k RTR
r -t 1.595562265 -s 1 -d -1 -p AODV -e 44 -c 2 -a 0 -i 0 -k RTR
+ -t 1.718431848 -s 3 -d -1 -p AODV -e 44 -c 2 -a 0 -i 0 -k RTR 
- -t 1.718431848 -s 3 -d -1 -p AODV -e 44 -c 2 -a 0 -i 0 -k RTR
h -t 1.718431848 -s 3 -d -1 -p AODV -e 44 -c 2 -a 0 -i 0 -k RTR
+ -t 1.718706848 -s 3 -d -1 -p AODV -e 102 -c 2 -a 0 -i 0 -k MAC 
- -t 1.718706848 -s 3 -d -1 -p AODV -e 102 -c 2 -a 0 -i 0 -k MAC
h -t 1.718706848 -s 3 -d -1 -p AODV -e 102 -c 2 -a 0 -i 0 -k MAC
+ -t 1.979911088 -s 4 -d -1 -p AODV -e 44 -c 2 -a 0 -i 0 -k RTR 
- -t 1.979911088 -s 4 -d -1 -p AODV -e 44 -c 2 -a 0 -i 0 -k RTR
h -t 1.979911088 -s 4 -d -1 -p AODV -e 44 -c 2 -a 0 -i 0 -k RTR
+ -t 1.980206088 -s 4 -d -1 -p AODV -e 102 -c 2 -a 0 -i 0 -k MAC 
- -t 1.980206088 -s 4 -d -1 -p AODV -e 102 -c 2 -a 0 -i 0 -k MAC
h -t 1.980206088 -s 4 -d -1 -p AODV -e 102 -c 2 -a 0 -i 0 -k MAC
r -t 1.981022440 -s 2 -d -1 -p AODV -e 44 -c 2 -a 0 -i 0 -k MAC
r -t 1.981023185 -s 0 -d -1 -p AODV -e 44 -c 2 -a 0 -i 0 -k MAC
r -t 1.981047440 -s 2 -d -1 -p AODV -e 44 -c 2 -a 0 -i 0 -k RTR
r -t 1.981048185 -s 0 -d -1 -p AODV -e 44 -c 2 -a 0 -i 0 -k RTR
+ -t 2.208973998 -s 1 -d -1 -p AODV -e 44 -c 2 -a 0 -i 0 -k RTR 
- -t 2.208973998 -s 1 -d -1 -p AODV -e 44 -c 2 -a 0 -i 0 -k RTR
h -t 2.208973998 -s 1 -d -1 -p AODV -e 44 -c 2 -a 0 -i 0 -k RTR
+ -t 2.209108998 -s 1 -d -1 -p AODV -e 102 -c 2 -a 0 -i 0 -k MAC 
- -t 2.209108998 -s 1 -d -1 -p AODV -e 102 -c 2 -a 0 -i 0 -k MAC
h -t 2.209108998 -s 1 -d -1 -p AODV -e 102 -c 2 -a 0 -i 0 -k MAC
r -t 2.209926239 -s 2 -d -1 -p AODV -e 44 -c 2 -a 0 -i 0 -k MAC
r -t 2.209951239 -s 2 -d -1 -p AODV -e 44 -c 2 -a 0 -i 0 -k RTR
+ -t 2.427686727 -s 0 -d -1 -p AODV -e 44 -c 2 -a 0 -i 0 -k RTR 
- -t 2.427686727 -s 0 -d -1 -p AODV -e 44 -c 2 -a 0 -i 0 -k RTR
h -t 2.427686727 -s 0 -d -1 -p AODV -e 44 -c 2 -a 0 -i 0 -k RTR
+ -t 2.428261727 -s 0 -d -1 -p AODV -e 102 -c 2 -a 0 -i 0 -k MAC 
- -t 2.428261727 -s 0 -d -1 -p AODV -e 102 -c 2 -a 0 -i 0 -k MAC
h -t 2.428261727 -s 0 -d -1 -p AODV -e 102 -c 2 -a 0 -i 0 -k MAC
r -t 2.429078489 -s 2 -d -1 -p AODV -e 44 -c 2 -a 0 -i 0 -k MAC
r -t 2.429078797 -s 4 -d -1 -p AODV -e 44 -c 2 -a 0 -i 0 -k MAC
r -t 2.429103489 -s 2 -d -1 -p AODV -e 44 -c 2 -a 0 -i 0 -k RTR
r -t 2.429103797 -s 4 -d -1 -p AODV -e 44 -c 2 -a 0 -i 0 -k RTR
+ -t 2.523031084 -s 3 -d -1 -p AODV -e 44 -c 2 -a 0 -i 0 -k RTR 
- -t 2.523031084 -s 3 -d -1 -p AODV -e 44 -c 2 -a 0 -i 0 -k RTR
h -t 2.523031084 -s 3 -d -1 -p AODV -e 44 -c 2 -a 0 -i 0 -k RTR
+ -t 2.523386084 -s 3 -d -1 -p AODV -e 102 -c 2 -a 0 -i 0 -k MAC 
- -t 2.523386084 -s 3 -d -1 -p AODV -e 102 -c 2 -a 0 -i 0 -k MAC
h -t 2.523386084 -s 3 -d -1 -p AODV -e 102 -c 2 -a 0 -i 0 -k MAC
+ -t 2.556838879 -s 3 -d -1 -p cbr -e 512 -c 2 -a 0 -i 0 -k AGT 
- -t 2.556838879 -s 3 -d -1 -p cbr -e 512 -c 2 -a 0 -i 0 -k AGT
h -t 2.556838879 -s 3 -d -1 -p cbr -e 512 -c 2 -a 0 -i 0 -k AGT
+ -t 2.556838879 -s 3 -d -1 -p AODV -e 48 -c 2 -a 0 -i 0 -k RTR 
- -t 2.556838879 -s 3 -d -1 -p AODV -e 48 -c 2 -a 0 -i 0 -k RTR
h -t 2.556838879 -s 3 -d -1 -p AODV -e 48 -c 2 -a 0 -i 0 -k RTR
+ -t 2.557133879 -s 3 -d -1 -p AODV -e 106 -c 2 -a 0 -i 0 -k MAC 
- -t 2.557133879 -s 3 -d -1 -p AODV -e 106 -c 2 -a 0 -i 0 -k MAC
h -t 2.557133879 -s 3 -d -1 -p AODV -e 106 -c 2 -a 0 -i 0 -k MAC
+ -t 2.725620904 -s 2 -d -1 -p AODV -e 44 -c 2 -a 0 -i 0 -k RTR 
- -t 2.725620904 -s 2 -d -1 -p AODV -e 44 -c 2 -a 0 -i 0 -k RTR
h -t 2.725620904 -s 2 -d -1 -p AODV -e 44 -c 2 -a 0 -i 0 -k RTR
+ -t 2.725915904 -s 2 -d -1 -p AODV -e 102 -c 2 -a 0 -i 0 -k MAC 
- -t 2.725915904 -s 2 -d -1 -p AODV -e 102 -c 2 -a 0 -i 0 -k MAC
h -t 2.725915904 -s 2 -d -1 -p AODV -e 102 -c 2 -a 0 -i 0 -k MAC
r -t 2.726732287 -s 4 -d -1 -p AODV -e 44 -c 2 -a 0 -i 0 -k MAC
r -t 2.726732647 -s 0 -d -1 -p AODV -e 44 -c 2 -a 0 -i 0 -k MAC
r -t 2.726733088 -s 1 -d -1 -p AODV -e 44 -c 2 -a 0 -i 0 -k MAC
r -t 2.726757287 -s 4 -d -1 -p AODV -e 44 -c 2 -a 0 -i 0 -k RTR
r -t 2.726757647 -s 0 -d -1 -p AODV -e 44 -c 2 -a 0 -i 0 -k RTR
r -t 2.726758088 -s 1 -d -1 -p AODV -e 44 -c 2 -a 0 -i 0 -k RTR
+ -t 2.765803272 -s 3 -d -1 -p cbr -e 512 -c 2 -a 0 -i 1 -k AGT 
- -t 2.765803272 -s 3 -d -1 -p cbr -e 512 -c 2 -a 0 -i 1 -k AGT
h -t 2.765803272 -s 3 -d -1 -p cbr -e 512 -c 2 -a 0 -i 1 -k AGT
+ -t 2.931266672 -s 3 -d -1 -p cbr -e 512 -c 2 -a 0 -i 2 -k AGT 
- -t 2.931266672 -s 3 -d -1 -p cbr -e 512 -c 2 -a 0 -i 2 -k AGT
h -t 2.931266672 -s 3 -d -1 -p cbr -e 512 -c 2 -a 0 -i 2 -k AGT
+ -t 3.014989656 -s 1 -d -1 -p AODV -e 44 -c 2 -a 0 -i 0 -k RTR 
- -t 3.014989656 -s 1 -d -1 -p AODV -e 44 -c 2 -a 0 -i 0 -k RTR
h -t 3.014989656 -s 1 -d -1 -p AODV -e 44 -c 2 -a 0 -i 0 -k RTR
+ -t 3.015364656 -s 1 -d -1 -p AODV -e 102 -c 2 -a 0 -i 0 -k MAC 
- -t 3.015364656 -s 1 -d -1 -p AODV -e 102 -c 2 -a 0 -i 0 -k MAC
h -t 3.015364656 -s 1 -d -1 -p AODV -e 102 -c 2 -a 0 -i 0 -k MAC
r -t 3.016181809 -s 2 -d -1 -p AODV -e 44 -c 2 -a 0 -i 0 -k MAC
r -t 3.016206809 -s 2 -d -1 -p AODV -e 44 -c 2 -a 0 -i 0 -k RTR
+ -t 3.068509523 -s 3 -d -1 -p cbr -e 512 -c 2 -a 0 -i 3 -k AGT 
- -t 3.068509523 -s 3 -d -1 -p cbr -e 512 -c 2 -a 0 -i 3 -k AGT
h -t 3.068509523 -s 3 -d -1 -p cbr -e 512 -c 2 -a 0 -i 3 -k AGT
+ -t 3.173632861 -s 4 -d -1 -p AODV -e 44 -c 2 -a 0 -i 0 -k RTR 
- -t 3.173632861 -s 4 -d -1 -p AODV -e 44 -c 2 -a 0 -i 0 -k RTR
h -t 3.173632861 -s 4 -d -1 -p AODV -e 44 -c 2 -a 0 -i 0 -k RTR
+ -t 3.173947861 -s 4 -d -1 -p AODV -e 102 -c 2 -a 0 -i 0 -k MAC 
- -t 3.173947861 -s 4 -d -1 -p AODV -e 102 -c 2 -a 0 -i 0 -k MAC
h -t 3.173947861 -s 4 -d -1 -p AODV -e 102 -c 2 -a 0 -i 0 -k MAC
r -t 3.174764266 -s 2 -d -1 -p AODV -e 44 -c 2 -a 0 -i 0 -k MAC
r -t 3.174764887 -s 0 -d -1 -p AODV -e 44 -c 2 -a 0 -i 0 -k MAC
r -t 3.174789266 -s 2 -d -1 -p AODV -e 44 -c 2 -a 0 -i 0 -k RTR
r -t 3.174789887 -s 0 -d -1 -p AODV -e 44 -c 2 -a 0 -i 0 -k RTR
+ -t 3.209856328 -s 3 -d -1 -p cbr -e 512 -c 2 -a 0 -i 4 -k AGT 
- -t 3.209856328 -s 3 -d -1 -p cbr -e 512 -c 2 -a 0 -i 4 -k AGT
h -t 3.209856328 -s 3 -d -1 -p cbr -e 512 -c 2 -a 0 -i 4 -k AGT
+ -t 3.328127712 -s 3 -d -1 -p cbr -e 512 -c 2 -a 0 -i 5 -k AGT 
- -t 3.328127712 -s 3 -d -1 -p cbr -e 512 -c 2 -a 0 -i 5 -k AGT
h -t 3.328127712 -s 3 -d -1 -p cbr -e 512 -c 2 -a 0 -i 5 -k AGT
+ -t 3.475200421 -s 0 -d -1 -p AODV -e 44 -c 2 -a 0 -i 0 -k RTR 
- -t 3.475200421 -s 0 -d -1 -p AODV -e 44 -c 2 -a 0 -i 0 -k RTR
h -t 3.475200421 -s 0 -d -1 -p AODV -e 44 -c 2 -a 0 -i 0 -k RTR
+ -t 3.475395421 -s 0 -d -1 -p AODV -e 102 -c 2 -a 0 -i 0 -k MAC 
- -t 3.475395421 -s 0 -d -1 -p AODV -e 102 -c 2 -a 0 -i 0 -k MAC
h -t 3.475395421 -s 0 -d -1 -p AODV -e 102 -c 2 -a 0 -i 0 -k MAC
r -t 3.476212120 -s 2 -d -1 -p AODV -e 44 -c 2 -a 0 -i 0 -k MAC
r -t 3.476212428 -s 4 -d -1 -p AODV -e 44 -c 2 -a 0 -i 0 -k MAC
r -t 3.476237120 -s 2 -d -1 -p AODV -e 44 -c 2 -a 0 -i 0 -k RTR
r -t 3.476237428 -s 4 -d -1 -p AODV -e 44 -c 2 -a 0 -i 0 -k RTR
+ -t 3.526472052 -s 3 -d -1 -p cbr -e 512 -c 2 -a 0 -i 6 -k AGT 
- -t 3.526472052 -s 3 -d -1 -p cbr -e 512 -c 2 -a 0 -i 6 -k AGT
h -t 3.526472052 -s 3 -d -1 -p cbr -e 512 -c 2 -a 0 -i 6 -k AGT
+ -t 3.607343031 -s 3 -d -1 -p AODV -e 44 -c 2 -a 0 -i 0 -k RTR 
- -t 3.607343031 -s 3 -d -1 -p AODV -e 44 -c 2 -a 0 -i 0 -k RTR
h -t 3.607343031 -s 3 -d -1 -p AODV -e 44 -c 2 -a 0 -i 0 -k RTR
+ -t 3.607678031 -s 3 -d -1 -p AODV -e 102 -c 2 -a 0 -i 0 -k MAC 
- -t 3.607678031 -s 3 -d -1 -p AODV -e 102 -c 2 -a 0 -i 0 -k MAC
h -t 3.607678031 -s 3 -d -1 -p AODV -e 102 -c 2 -a 0 -i 0 -k MAC
+ -t 3.753040740 -s 2 -d -1 -p AODV -e 44 -c 2 -a 0 -i 0 -k RTR 
- -t 3.753040740 -s 2 -d -1 -p AODV -e 44 -c 2 -a 0 -i 0 -k RTR
h -t 3.753040740 -s 2 -d -1 -p AODV -e 44 -c 2 -a 0 -i 0 -k RTR
+ -t 3.753455740 -s 2 -d -1 -p AODV -e 102 -c 2 -a 0 -i 0 -k MAC 
- -t 3.753455740 -s 2 -d -1 -p AODV -e 102 -c 2 -a 0 -i 0 -k MAC
h -t 3.753455740 -s 2 -d -1 -p AODV -e 102 -c 2 -a 0 -i 0 -k MAC
r -t 3.754272172 -s 4 -d -1 -p AODV -e 44 -c 2 -a 0 -i 0 -k MAC
r -t 3.754272424 -s 0 -d -1 -p AODV -e 44 -c 2 -a 0 -i 0 -k MAC
r -t 3.754272812 -s 1 -d -1 -p AODV -e 44 -c 2 -a 0 -i 0 -k MAC
r -t 3.754297172 -s 4 -d -1 -p AODV -e 44 -c 2 -a 0 -i 0 -k RTR
r -t 3.754297424 -s 0 -d -1 -p AODV -e 44 -c 2 -a 0 -i 0 -k RTR
r -t 3.754297812 -s 1 -d -1 -p AODV -e 44 -c 2 -a 0 -i 0 -k RTR
+ -t 3.773490277 -s 3 -d -1 -p cbr -e 512 -c 2 -a 0 -i 7 -k AGT 
- -t 3.773490277 -s 3 -d -1 -p cbr -e 512 -c 2 -a 0 -i 7 -k AGT
h -t 3.773490277 -s 3 -d -1 -p cbr -e 512 -c 2 -a 0 -i 7 -k AGT
+ -t 3.990712773 -s 3 -d -1 -p cbr -e 512 -c 2 -a 0 -i 8 -k AGT 
- -t 3.990712773 -s 3 -d -1 -p cbr -e 512 -c 2 -a 0 -i 8 -k AGT
h -t 3.990712773 -s 3 -d -1 -p cbr -e 512 -c 2 -a 0 -i 8 -k AGT
+ -t 4.157483208 -s 1 -d -1 -p AODV -e 44 -c 2 -a 0 -i 0 -k RTR 
- -t 4.157483208 -s 1 -d -1 -p AODV -e 44 -c 2 -a 0 -i 0 -k RTR
h -t 4.157483208 -s 1 -d -1 -p AODV -e 44 -c 2 -a 0 -i 0 -k RTR
+ -t 4.157678208 -s 1 -d -1 -p AODV -e 102 -c 2 -a 0 -i 0 -k MAC 
- -t 4.157678208 -s 1 -d -1 -p AODV -e 102 -c 2 -a 0 -i 0 -k MAC
h -t 4.157678208 -s 1 -d -1 -p AODV -e 102 -c 2 -a 0 -i 0 -k MAC
r -t 4.158495236 -s 2 -d -1 -p AODV -e 44 -c 2 -a 0 -i 0 -k MAC
r -t 4.158495527 -s 0 -d -1 -p AODV -e 44 -c 2 -a 0 -i 0 -k MAC
r -t 4.158520236 -s 2 -d -1 -p AODV -e 44 -c 2 -a 0 -i 0 -k RTR
r -t 4.158520527 -s 0 -d -1 -p AODV -e 44 -c 2 -a 0 -i 0 -k RTR
+ -t 4.237880879 -s 3 -d -1 -p cbr -e 512 -c 2 -a 0 -i 9 -k AGT 
- -t 4.237880879 -s 3 -d -1 -p cbr -e 512 -c 2 -a 0 -i 9 -k AGT
h -t 4.237880879 -s 3 -d -1 -p cbr -e 512 -c 2 -a 0 -i 9 -k AGT
+ -t 4.250267123 -s 0 -d -1 -p AODV -e 44 -c 2 -a 0 -i 0 -k RTR 
- -t 4.250267123 -s 0 -d -1 -p AODV -e 44 -c 2 -a 0 -i 0 -k RTR
h -t 4.250267123 -s 0 -d -1 -p AODV -e 44 -c 2 -a 0 -i 0 -k RTR
+ -t 4.250642123 -s 0 -d -1 -p AODV -e 102 -c 2 -a 0 -i 0 -k MAC 
- -t 4.250642123 -s 0 -d -1 -p AODV -e 102 -c 2 -a 0 -i 0 -k MAC
h -t 4.250642123 -s 0 -d -1 -p AODV -e 102 -c 2 -a 0 -i 0 -k MAC
r -t 4.251458782 -s 2 -d -1 -p AODV -e 44 -c 2 -a 0 -i 0 -k MAC
r -t 4.251459085 -s 4 -d -1 -p AODV -e 44 -c 2 -a 0 -i 0 -k MAC
r -t 4.251459438 -s 1 -d -1 -p AODV -e 44 -c 2 -a 0 -i 0 -k MAC
r -t 4.251483782 -s 2 -d -1 -p AODV -e 44 -c 2 -a 0 -i 0 -k RTR
r -t 4.251484085 -s 4 -d -1 -p AODV -e 44 -c 2 -a 0 -i 0 -k RTR
r -t 4.251484438 -s 1 -d -1 -p AODV -e 44 -c 2 -a 0 -i 0 -k RTR
+ -t 4.271101492 -s 4 -d -1 -p AODV -e 44 -c 2 -a 0 -i 0 -k RTR 
- -t 4.271101492 -s 4 -d -1 -p AODV -e 44 -c 2 -a 0 -i 0 -k RTR
h -t 4.271101492 -s 4 -d -1 -p AODV -e 44 -c 2 -a 0 -i 0 -k RTR
+ -t 4.271516492 -s 4 -d -1 -p AODV -e 102 -c 2 -a 0 -i 0 -k MAC 
- -t 4.271516492 -s 4 -d -1 -p AODV -e 102 -c 2 -a 0 -i 0 -k MAC
h -t 4.271516492 -s 4 -d -1 -p AODV -e 102 -c 2 -a 0 -i 0 -k MAC
r -t 4.272332949 -s 2 -d -1 -p AODV -e 44 -c 2 -a 0 -i 0 -k MAC
r -t 4.272333453 -s 0 -d -1 -p AODV -e 44 -c 2 -a 0 -i 0 -k MAC
r -t 4.272357949 -s 2 -d -1 -p AODV -e 44 -c 2 -a 0 -i 0 -k RTR
r -t 4.272358453 -s 0 -d -1 -p AODV -e 44 -c 2 -a 0 -i 0 -k RTR
+ -t 4.500000000 -s 3 -d -1 -p AODV -e 48 -c 2 -a 0 -i 0 -k RTR 
- -t 4.500000000 -s 3 -d -1 -p AODV -e 48 -c 2 -a 0 -i 0 -k RTR
h -t 4.500000000 -s 3 -d -1 -p AODV -e 48 -c 2 -a 0 -i 0 -k RTR
+ -t 4.500655000 -s 3 -d -1 -p AODV -e 106 -c 2 -a 0 -i 0 -k MAC 
- -t 4.500655000 -s 3 -d -1 -p AODV -e 106 -c 2 -a 0 -i 0 -k MAC
h -t 4.500655000 -s 3 -d -1 -p AODV -e 106 -c 2 -a 0 -i 0 -k MAC
+ -t 4.500997348 -s 3 -d -1 -p cbr -e 512 -c 2 -a 0 -i 10 -k AGT 
- -t 4.500997348 -s 3 -d -1 -p cbr -e 512 -c 2 -a 0 -i 10 -k AGT
h -t 4.500997348 -s 3 -d -1 -p cbr -e 512 -c 2 -a 0 -i 10 -k AGT
+ -t 4.567953056 -s 3 -d -1 -p AODV -e 44 -c 2 -a 0 -i 0 -k RTR 
- -t 4.567953056 -s 3 -d -1 -p AODV -e 44 -c 2 -a 0 -i 0 -k RTR
h -t 4.567953056 -s 3 -d -1 -p AODV -e 44 -c 2 -a 0 -i 0 -k RTR
+ -t 4.568468056 -s 3 -d -1 -p AODV -e 102 -c 2 -a 0 -i 0 -k MAC 
- -t 4.568468056 -s 3 -d -1 -p AODV -e 102 -c 2 -a 0 -i 0 -k MAC
h -t 4.568468056 -s 3 -d -1 -p AODV -e 102 -c 2 -a 0 -i 0 -k MAC
+ -t 4.617683326 -s 3 -d -1 -p cbr -e 512 -c 2 -a 0 -i 11 -k AGT 
- -t 4.617683326 -s 3 -d -1 -p cbr -e 512 -c 2 -a 0 -i 11 -k AGT
h -t 4.617683326 -s 3 -d -1 -p cbr -e 512 -c 2 -a 0 -i 11 -k AGT
+ -t 4.790732791 -s 3 -d -1 -p cbr -e 512 -c 2 -a 0 -i 12 -k AGT 
- -t 4.790732791 -s 3 -d -1 -p cbr -e 512 -c 2 -a 0 -i 12 -k AGT
h -t 4.790732791 -s 3 -d -1 -p cbr -e 512 -c 2 -a 0 -i 12 -k AGT
+ -t 4.951730585 -s 3 -d -1 -p cbr -e 512 -c 2 -a 0 -i 13 -k AGT 
- -t 4.951730585 -s 3 -d -1 -p cbr -e 512 -c 2 -a 0 -i 13 -k AGT
h -t 4.951730585 -s 3 -d -1 -p cbr -e 512 -c 2 -a 0 -i 13 -k AGT
+ -t 4.954464562 -s 2 -d -1 -p AODV -e 44 -c 2 -a 0 -i 0 -k RTR 
- -t 4.954464562 -s 2 -d -1 -p AODV -e 44 -c 2 -a 0 -i 0 -k RTR
h -t 4.954464562 -s 2 -d -1 -p AODV -e 44 -c 2 -a 0 -i 0 -k RTR
+ -t 4.954679562 -s 2 -d -1 -p AODV -e 102 -c 2 -a 0 -i 0 -k MAC 
- -t 4.954679562 -s 2 -d -1 -p AODV -e 102 -c 2 -a 0 -i 0 -k MAC
h -t 4.954679562 -s 2 -d -1 -p AODV -e 102 -c 2 -a 0 -i 0 -k MAC
r -t 4.955496052 -s 4 -d -1 -p AODV -e 44 -c 2 -a 0 -i 0 -k MAC
r -t 4.955496192 -s 0 -d -1 -p AODV -e 44 -c 2 -a 0 -i 0 -k MAC
r -t 4.955496503 -s 1 -d -1 -p AODV -e 44 -c 2 -a 0 -i 0 -k MAC
r -t 4.955521052 -s 4 -d -1 -p AODV -e 44 -c 2 -a 0 -i 0 -k RTR
r -t 4.955521192 -s 0 -d -1 -p AODV -e 44 -c 2 -a 0 -i 0 -k RTR
r -t 4.955521503 -s 1 -d -1 -p AODV -e 44 -c 2 -a 0 -i 0 -k RTR
+ -t 5.052400639 -s 3 -d -1 -p cbr -e 512 -c 2 -a 0 -i 14 -k AGT 
- -t 5.052400639 -s 3 -d -1 -p cbr -e 512 -c 2 -a 0 -i 14 -k AGT
h -t 5.052400639 -s 3 -d -1 -p cbr -e 512 -c 2 -a 0 -i 14 -k AGT
+ -t 5.224290251 -s 4 -d -1 -p AODV -e 44 -c 2 -a 0 -i 0 -k RTR 
- -t 5.224290251 -s 4 -d -1 -p AODV -e 44 -c 2 -a 0 -i 0 -k RTR
h -t 5.224290251 -s 4 -d -1 -p AODV -e 44 -c 2 -a 0 -i 0 -k RTR
+ -t 5.224865251 -s 4 -d -1 -p AODV -e 102 -c 2 -a 0 -i 0 -k MAC 
- -t 5.224865251 -s 4 -d -1 -p AODV -e 102 -c 2 -a 0 -i 0 -k MAC
h -t 5.224865251 -s 4 -d -1 -p AODV -e 102 -c 2 -a 0 -i 0 -k MAC
r -t 5.225681755 -s 2 -d -1 -p AODV -e 44 -c 2 -a 0 -i 0 -k MAC
r -t 5.225682155 -s 0 -d -1 -p AODV -e 44 -c 2 -a 0 -i 0 -k MAC
r -t 5.225706755 -s 2 -d -1 -p AODV -e 44 -c 2 -a 0 -i 0 -k RTR
r -t 5.225707155 -s 0 -d -1 -p AODV -e 44 -c 2 -a 0 -i 0 -k RTR
+ -t 5.308489139 -s 1 -d -1 -p AODV -e 44 -c 2 -a 0 -i 0 -k RTR 
- -t 5.308489139 -s 1 -d -1 -p AODV -e 44 -c 2 -a 0 -i 0 -k RTR
h -t 5.308489139 -s 1 -d -1 -p AODV -e 44 -c 2 -a 0 -i 0 -k RTR
+ -t 5.308584139 -s 1 -d -1 -p AODV -e 102 -c 2 -a 0 -i 0 -k MAC 
- -t 5.308584139 -s 1 -d -1 -p AODV -e 102 -c 2 -a 0 -i 0 -k MAC
h -t 5.308584139 -s 1 -d -1 -p AODV -e 102 -c 2 -a 0 -i 0 -k MAC
r -t 5.309401041 -s 2 -d -1 -p AODV -e 44 -c 2 -a 0 -i 0 -k MAC
r -t 5.309401399 -s 0 -d -1 -p AODV -e 44 -c 2 -a 0 -i 0 -k MAC
r -t 5.309426041 -s 2 -d -1 -p AODV -e 44 -c 2 -a 0 -i 0 -k RTR
r -t 5.309426399 -s 0 -d -1 -p AODV -e 44 -c 2 -a 0 -i 0 -k RTR
+ -t 5.313567006 -s 3 -d -1 -p cbr -e 512 -c 2 -a 0 -i 15 -k AGT 
- -t 5.313567006 -s 3 -d -1 -p cbr -e 512 -c 2 -a 0 -i 15 -k AGT
h -t 5.313567006 -s 3 -d -1 -p cbr -e 512 -c 2 -a 0 -i 15 -k AGT
+ -t 5.392154647 -s 0 -d -1 -p AODV -e 44 -c 2 -a 0 -i 0 -k RTR 
- -t 5.392154647 -s 0 -d -1 -p AODV -e 44 -c 2 -a 0 -i 0 -k RTR
h -t 5.392154647 -s 0 -d -1 -p AODV -e 44 -c 2 -a 0 -i 0 -k RTR
+ -t 5.392289647 -s 0 -d -1 -p AODV -e 102 -c 2 -a 0 -i 0 -k MAC 
- -t 5.392289647 -s 0 -d -1 -p AODV -e 102 -c 2 -a 0 -i 0 -k MAC
h -t 5.392289647 -s 0 -d -1 -p AODV -e 102 -c 2 -a 0 -i 0 -k MAC
r -t 5.393106262 -s 2 -d -1 -p AODV -e 44 -c 2 -a 0 -i 0 -k MAC
r -t 5.393106541 -s 4 -d -1 -p AODV -e 44 -c 2 -a 0 -i 0 -k MAC
r -t 5.393106902 -s 1 -d -1 -p AODV -e 44 -c 2 -a 0 -i 0 -k MAC
r -t 5.393131262 -s 2 -d -1 -p AODV -e 44 -c 2 -a 0 -i 0 -k RTR
r -t 5.393131541 -s 4 -d -1 -p AODV -e 44 -c 2 -a 0 -i 0 -k RTR
r -t 5.393131902 -s 1 -d -1 -p AODV -e 44 -c 2 -a 0 -i 0 -k RTR
+ -t 5.503819297 -s 3 -d -1 -p cbr -e 512 -c 2 -a 0 -i 16 -k AGT 
- -t 5.503819297 -s 3 -d -1 -p cbr -e 512 -c 2 -a 0 -i 16 -k AGT
h -t 5.503819297 -s 3 -d -1 -p cbr -e 512 -c 2 -a 0 -i 16 -k AGT
+ -t 5.665797959 -s 3 -d -1 -p AODV -e 44 -c 2 -a 0 -i 0 -k RTR 
- -t 5.665797959 -s 3 -d -1 -p AODV -e 44 -c 2 -a 0 -i 0 -k RTR
h -t 5.665797959 -s 3 -d -1 -p AODV -e 44 -c 2 -a 0 -i 0 -k RTR
+ -t 5.665892959 -s 3 -d -1 -p AODV -e 102 -c 2 -a 0 -i 0 -k MAC 
- -t 5.665892959 -s 3 -d -1 -p AODV -e 102 -c 2 -a 0 -i 0 -k MAC
h -t 5.665892959 -s 3 -d -1 -p AODV -e 102 -c 2 -a 0 -i 0 -k MAC
+ -t 5.691263732 -s 3 -d -1 -p cbr -e 512 -c 2 -a 0 -i 17 -k AGT 
- -t 5.691263732 -s 3 -d -1 -p cbr -e 512 -c 2 -a 0 -i 17 -k AGT
h -t 5.691263732 -s 3 -d -1 -p cbr -e 512 -c 2 -a 0 -i 17 -k AGT
+ -t 5.834094137 -s 3 -d -1 -p cbr -e 512 -c 2 -a 0 -i 18 -k AGT 
- -t 5.834094137 -s 3 -d -1 -p cbr -e 512 -c 2 -a 0 -i 18 -k AGT
h -t 5.834094137 -s 3 -d -1 -p cbr -e 512 -c 2 -a 0 -i 18 -k AGT
+ -t 5.865331969 -s 2 -d -1 -p AODV -e 44 -c 2 -a 0 -i 0 -k RTR 
- -t 5.865331969 -s 2 -d -1 -p AODV -e 44 -c 2 -a 0 -i 0 -k RTR
h -t 5.865331969 -s 2 -d -1 -p AODV -e 44 -c 2 -a 0 -i 0 -k RTR
+ -t 5.865426969 -s 2 -d -1 -p AODV -e 102 -c 2 -a 0 -i 0 -k MAC 
- -t 5.865426969 -s 2 -d -1 -p AODV -e 102 -c 2 -a 0 -i 0 -k MAC
h -t 5.865426969 -s 2 -d -1 -p AODV -e 102 -c 2 -a 0 -i 0 -k MAC
r -t 5.866243504 -s 4 -d -1 -p AODV -e 44 -c 2 -a 0 -i 0 -k MAC
r -t 5.866243571 -s 0 -d -1 -p AODV -e 44 -c 2 -a 0 -i 0 -k MAC
r -t 5.866243810 -s 1 -d -1 -p AODV -e 44 -c 2 -a 0 -i 0 -k MAC
r -t 5.866268504 -s 4 -d -1 -p AODV -e 44 -c 2 -a 0 -i 0 -k RTR
r -t 5.866268571 -s 0 -d -1 -p AODV -e 44 -c 2 -a 0 -i 0 -k RTR
r -t 5.866268810 -s 1 -d -1 -p AODV -e 44 -c 2 -a 0 -i 0 -k RTR
+ -t 6.020175106 -s 3 -d -1 -p cbr -e 512 -c 2 -a 0 -i 19 -k AGT 
- -t 6.020175106 -s 3 -d -1 -p cbr -e 512 -c 2 -a 0 -i 19 -k AGT
h -t 6.020175106 -s 3 -d -1 -p cbr -e 512 -c 2 -a 0 -i 19 -k AGT
+ -t 6.059899758 -s 4 -d -1 -p AODV -e 44 -c 2 -a 0 -i 0 -k RTR 
- -t 6.059899758 -s 4 -d -1 -p AODV -e 44 -c 2 -a 0 -i 0 -k RTR
h -t 6.059899758 -s 4 -d -1 -p AODV -e 44 -c 2 -a 0 -i 0 -k RTR
+ -t 6.060454758 -s 4 -d -1 -p AODV -e 102 -c 2 -a 0 -i 0 -k MAC 
- -t 6.060454758 -s 4 -d -1 -p AODV -e 102 -c 2 -a 0 -i 0 -k MAC
h -t 6.060454758 -s 4 -d -1 -p AODV -e 102 -c 2 -a 0 -i 0 -k MAC
r -t 6.061271303 -s 2 -d -1 -p AODV -e 44 -c 2 -a 0 -i 0 -k MAC
r -t 6.061271612 -s 0 -d -1 -p AODV -e 44 -c 2 -a 0 -i 0 -k MAC
r -t 6.061272064 -s 1 -d -1 -p AODV -e 44 -c 2 -a 0 -i 0 -k MAC
r -t 6.061296303 -s 2 -d -1 -p AODV -e 44 -c 2 -a 0 -i 0 -k RTR
r -t 6.061296612 -s 0 -d -1 -p AODV -e 44 -c 2 -a 0 -i 0 -k RTR
r -t 6.061297064 -s 1 -d -1 -p AODV -e 44 -c 2 -a 0 -i 0 -k RTR
+ -t 6.217129925 -s 3 -d -1 -p cbr -e 512 -c 2 -a 0 -i 20 -k AGT 
- -t 6.217129925 -s 3 -d -1 -p cbr -e 512 -c 2 -a 0 -i 20 -k AGT
h -t 6.217129925 -s 3 -d -1 -p cbr -e 512 -c 2 -a 0 -i 20 -k AGT
+ -t 6.245962211 -s 0 -d -1 -p AODV -e 44 -c 2 -a 0 -i 0 -k RTR 
- -t 6.245962211 -s 0 -d -1 -p AODV -e 44 -c 2 -a 0 -i 0 -k RTR
h -t 6.245962211 -s 0 -d -1 -p AODV -e 44 -c 2 -a 0 -i 0 -k RTR
+ -t 6.246217211 -s 0 -d -1 -p AODV -e 102 -c 2 -a 0 -i 0 -k MAC 
- -t 6.246217211 -s 0 -d -1 -p AODV -e 102 -c 2 -a 0 -i 0 -k MAC
h -t 6.246217211 -s 0 -d -1 -p AODV -e 102 -c 2 -a 0 -i 0 -k MAC
r -t 6.247033805 -s 2 -d -1 -p AODV -e 44 -c 2 -a 0 -i 0 -k MAC
r -t 6.247034054 -s 4 -d -1 -p AODV -e 44 -c 2 -a 0 -i 0 -k MAC
r -t 6.247034423 -s 1 -d -1 -p AODV -e 44 -c 2 -a 0 -i 0 -k MAC
r -t 6.247058805 -s 2 -d -1 -p AODV -e 44 -c 2 -a 0 -i 0 -k RTR
r -t 6.247059054 -s 4 -d -1 -p AODV -e 44 -c 2 -a 0 -i 0 -k RTR
r -t 6.247059423 -s 1 -d -1 -p AODV -e 44 -c 2 -a 0 -i 0 -k RTR
+ -t 6.348832669 -s 3 -d -1 -p cbr -e 512 -c 2 -a 0 -i 21 -k AGT 
- -t 6.348832669 -s 3 -d -1 -p cbr -e 512 -c 2 -a 0 -i 21 -k AGT
h -t 6.348832669 -s 3 -d -1 -p cbr -e 512 -c 2 -a 0 -i 21 -k AGT
+ -t 6.366167451 -s 1 -d -1 -p AODV -e 44 -c 2 -a 0 -i 0 -k RTR 
- -t 6.366167451 -s 1 -d -1 -p AODV -e 44 -c 2 -a 0 -i 0 -k RTR
h -t 6.366167451 -s 1 -d -1 -p AODV -e 44 -c 2 -a 0 -i 0 -k RTR
+ -t 6.366342451 -s 1 -d -1 -p AODV -e 102 -c 2 -a 0 -i 0 -k MAC 
- -t 6.366342451 -s 1 -d -1 -p AODV -e 102 -c 2 -a 0 -i 0 -k MAC
h -t 6.366342451 -s 1 -d -1 -p AODV -e 102 -c 2 -a 0 -i 0 -k MAC
r -t 6.367159238 -s 2 -d -1 -p AODV -e 44 -c 2 -a 0 -i 0 -k MAC
r -t 6.367159657 -s 0 -d -1 -p AODV -e 44 -c 2 -a 0 -i 0 -k MAC
r -t 6.367159742 -s 4 -d -1 -p AODV -e 44 -c 2 -a 0 -i 0 -k MAC
r -t 6.367184238 -s 2 -d -1 -p AODV -e 44 -c 2 -a 0 -i 0 -k RTR
r -t 6.367184657 -s 0 -d -1 -p AODV -e 44 -c 2 -a 0 -i 0 -k RTR
r -t 6.367184742 -s 4 -d -1 -p AODV -e 44 -c 2 -a 0 -i 0 -k RTR
+ -t 6.581403968 -s 3 -d -1 -p AODV -e 44 -c 2 -a 0 -i 0 -k RTR 
- -t 6.581403968 -s 3 -d -1 -p AODV -e 44 -c 2 -a 0 -i 0 -k RTR
h -t 6.581403968 -s 3 -d -1 -p AODV -e 44 -c 2 -a 0 -i 0 -k RTR
+ -t 6.582038968 -s 3 -d -1 -p AODV -e 102 -c 2 -a 0 -i 0 -k MAC 
- -t 6.582038968 -s 3 -d -1 -p AODV -e 102 -c 2 -a 0 -i 0 -k MAC
h -t 6.582038968 -s 3 -d -1 -p AODV -e 102 -c 2 -a 0 -i 0 -k MAC
+ -t 6.623101631 -s 3 -d -1 -p cbr -e 512 -c 2 -a 0 -i 22 -k AGT 
- -t 6.623101631 -s 3 -d -1 -p cbr -e 512 -c 2 -a 0 -i 22 -k AGT
h -t 6.623101631 -s 3 -d -1 -p cbr -e 512 -c 2 -a 0 -i 22 -k AGT
+ -t 6.791093900 -s 3 -d -1 -p cbr -e 512 -c 2 -a 0 -i 23 -k AGT 
- -t 6.791093900 -s 3 -d -1 -p cbr -e 512 -c 2 -a 0 -i 23 -k AGT
h -t 6.791093900 -s 3 -d -1 -p cbr -e 512 -c 2 -a 0 -i 23 -k AGT
+ -t 6.826798163 -s 2 -d -1 -p AODV -e 44 -c 2 -a 0 -i 0 -k RTR 
- -t 6.826798163 -s 2 -d -1 -p AODV -e 44 -c 2 -a 0 -i 0 -k RTR
h -t 6.826798163 -s 2 -d -1 -p AODV -e 44 -c 2 -a 0 -i 0 -k RTR
+ -t 6.827013163 -s 2 -d -1 -p AODV -e 102 -c 2 -a 0 -i 0 -k MAC 
- -t 6.827013163 -s 2 -d -1 -p AODV -e 102 -c 2 -a 0 -i 0 -k MAC
h -t 6.827013163 -s 2 -d -1 -p AODV -e 102 -c 2 -a 0 -i 0 -k MAC
r -t 6.827829748 -s 4 -d -1 -p AODV -e 44 -c 2 -a 0 -i 0 -k MAC
r -t 6.827829750 -s 0 -d -1 -p AODV -e 44 -c 2 -a 0 -i 0 -k MAC
r -t 6.827829900 -s 1 -d -1 -p AODV -e 44 -c 2 -a 0 -i 0 -k MAC
r -t 6.827854748 -s 4 -d -1 -p AODV -e 44 -c 2 -a 0 -i 0 -k RTR
r -t 6.827854750 -s 0 -d -1 -p AODV -e 44 -c 2 -a 0 -i 0 -k RTR
r -t 6.827854900 -s 1 -d -1 -p AODV -e 44 -c 2 -a 0 -i 0 -k RTR
+ -t 7.049901495 -s 3 -d -1 -p cbr -e 512 -c 2 -a 0 -i 24 -k AGT 
- -t 7.049901495 -s 3 -d -1 -p cbr -e 512 -c 2 -a 0 -i 24 -k AGT
h -t 7.049901495 -s 3 -d -1 -p cbr -e 512 -c 2 -a 0 -i 24 -k AGT
+ -t 7.113732547 -s 0 -d -1 -p AODV -e 44 -c 2 -a 0 -i 0 -k RTR 
- -t 7.113732547 -s 0 -d -1 -p AODV -e 44 -c 2 -a 0 -i 0 -k RTR
h -t 7.113732547 -s 0 -d -1 -p AODV -e 44 -c 2 -a 0 -i 0 -k RTR
+ -t 7.113987547 -s 0 -d -1 -p AODV -e 102 -c 2 -a 0 -i 0 -k MAC 
- -t 7.113987547 -s 0 -d -1 -p AODV -e 102 -c 2 -a 0 -i 0 -k MAC